 Entering Gaussian System, Link 0=g16
 Input=CuL11SO2Cl-RCF3-TS-1a-0.gau
 Output=CuL11SO2Cl-RCF3-TS-1a-0.log
 Initial command:
 /apps/gaussian/g16c01/g16/l1.exe "/jobfs/135530331.gadi-pbs/Gau-1239295.inp" -scrdir="/jobfs/135530331.gadi-pbs/"
 Default is to use a total of  28 processors:
                               28 via shared-memory
                                1 via Linda
 Entering Link 1 = /apps/gaussian/g16c01/g16/l1.exe PID=   1239296.
  
 Copyright (c) 1988-2019, Gaussian, Inc.  All Rights Reserved.
  
 This is part of the Gaussian(R) 16 program.  It is based on
 the Gaussian(R) 09 system (copyright 2009, Gaussian, Inc.),
 the Gaussian(R) 03 system (copyright 2003, Gaussian, Inc.),
 the Gaussian(R) 98 system (copyright 1998, Gaussian, Inc.),
 the Gaussian(R) 94 system (copyright 1995, Gaussian, Inc.),
 the Gaussian 92(TM) system (copyright 1992, Gaussian, Inc.),
 the Gaussian 90(TM) system (copyright 1990, Gaussian, Inc.),
 the Gaussian 88(TM) system (copyright 1988, Gaussian, Inc.),
 the Gaussian 86(TM) system (copyright 1986, Carnegie Mellon
 University), and the Gaussian 82(TM) system (copyright 1983,
 Carnegie Mellon University). Gaussian is a federally registered
 trademark of Gaussian, Inc.
  
 This software contains proprietary and confidential information,
 including trade secrets, belonging to Gaussian, Inc.
  
 This software is provided under written license and may be
 used, copied, transmitted, or stored only in accord with that
 written license.
  
 The following legend is applicable only to US Government
 contracts under FAR:
  
                    RESTRICTED RIGHTS LEGEND
  
 Use, reproduction and disclosure by the US Government is
 subject to restrictions as set forth in subparagraphs (a)
 and (c) of the Commercial Computer Software - Restricted
 Rights clause in FAR 52.227-19.
  
 Gaussian, Inc.
 340 Quinnipiac St., Bldg. 40, Wallingford CT 06492
  
  
 ---------------------------------------------------------------
 Warning -- This program may not be used in any manner that
 competes with the business of Gaussian, Inc. or will provide
 assistance to any competitor of Gaussian, Inc.  The licensee
 of this program is prohibited from giving any competitor of
 Gaussian, Inc. access to this program.  By using this program,
 the user acknowledges that Gaussian, Inc. is engaged in the
 business of creating and licensing software in the field of
 computational chemistry and represents and warrants to the
 licensee that it is not a competitor of Gaussian, Inc. and that
 it will not use this program in any manner prohibited above.
 ---------------------------------------------------------------
  

 Cite this work as:
 Gaussian 16, Revision C.01,
 M. J. Frisch, G. W. Trucks, H. B. Schlegel, G. E. Scuseria, 
 M. A. Robb, J. R. Cheeseman, G. Scalmani, V. Barone, 
 G. A. Petersson, H. Nakatsuji, X. Li, M. Caricato, A. V. Marenich, 
 J. Bloino, B. G. Janesko, R. Gomperts, B. Mennucci, H. P. Hratchian, 
 J. V. Ortiz, A. F. Izmaylov, J. L. Sonnenberg, D. Williams-Young, 
 F. Ding, F. Lipparini, F. Egidi, J. Goings, B. Peng, A. Petrone, 
 T. Henderson, D. Ranasinghe, V. G. Zakrzewski, J. Gao, N. Rega, 
 G. Zheng, W. Liang, M. Hada, M. Ehara, K. Toyota, R. Fukuda, 
 J. Hasegawa, M. Ishida, T. Nakajima, Y. Honda, O. Kitao, H. Nakai, 
 T. Vreven, K. Throssell, J. A. Montgomery, Jr., J. E. Peralta, 
 F. Ogliaro, M. J. Bearpark, J. J. Heyd, E. N. Brothers, K. N. Kudin, 
 V. N. Staroverov, T. A. Keith, R. Kobayashi, J. Normand, 
 K. Raghavachari, A. P. Rendell, J. C. Burant, S. S. Iyengar, 
 J. Tomasi, M. Cossi, J. M. Millam, M. Klene, C. Adamo, R. Cammi, 
 J. W. Ochterski, R. L. Martin, K. Morokuma, O. Farkas, 
 J. B. Foresman, and D. J. Fox, Gaussian, Inc., Wallingford CT, 2019.
 
 ******************************************
 Gaussian 16:  ES64L-G16RevC.01  3-Jul-2019
                18-Feb-2025 
 ******************************************
 %chk=CuL11SO2Cl-RCF3-TS-1a-0-StableOpt.chk
 Default route: Maxdisk=0MB
 ----------------------------------------------------------------------
 # Stable=Opt scf(maxcycle=300,xqc) uwb97xd/def2svpp scrf=(smd,solvent=
 acetonitrile)
 ----------------------------------------------------------------------
 1/38=1,172=1/1;
 2/12=2,17=6,18=5,40=1/2;
 3/5=43,7=202,11=2,25=1,30=1,70=32201,72=2,74=-58,116=2/1,2,3;
 4//1;
 5/5=2,7=300,8=3,13=1,38=5,53=2/2,8;
 6/7=2,8=2,9=2,10=2,28=1/1;
 8/6=1,10=90,11=11/1;
 9/8=-3,42=1,46=1/14;
 5/5=2,7=300,8=3,17=40,38=5,53=2/8(-2);
 6/7=2,8=2,9=2,10=2,28=1/1;
 99/5=1,9=1/99;
 ----------
 OPT + Freq
 ----------
 Symbolic Z-matrix:
 Charge =  1 Multiplicity = 1
 C                     2.15261  -4.62922   1.51558 
 C                     2.61869  -3.9071    2.61667 
 C                     2.35909  -2.53686   2.73265 
 C                     1.63281  -1.8695    1.74464 
 C                     1.17434  -2.59473   0.64725 
 C                     1.42294  -3.96419   0.53121 
 C                     0.37318  -2.09513  -0.53364 
 C                     0.01822  -3.37931  -1.3201 
 C                     0.86133  -4.52081  -0.75381 
 O                    -1.39291  -3.55406  -1.01178 
 N                    -0.93949  -1.57178  -0.14334 
 C                    -1.82731  -2.46239  -0.41326 
 C                    -3.27372  -2.39679  -0.13814 
 C                    -4.10901   1.98138   0.57318 
 C                    -3.08587   2.84572   0.19008 
 C                    -3.35827   3.81507  -0.77612 
 C                    -4.63892   3.91414  -1.33241 
 C                    -5.65978   3.04376  -0.94094 
 C                    -5.38545   2.06557   0.01483 
 C                    -6.31006   1.01581   0.58577 
 C                    -5.39507   0.11602   1.42476 
 C                    -4.01089   0.80828   1.51771 
 O                    -5.08635  -1.12453   0.73022 
 N                    -3.09291  -0.21151   0.99731 
 C                    -3.78463  -1.201     0.55133 
 C                    -4.20647  -3.06501  -1.16198 
 C                    -3.99874  -3.72469   0.13743 
 H                     2.35815  -5.70015   1.4278 
 H                     3.19163  -4.41784   3.39642 
 H                     2.73077  -1.98455   3.60072 
 H                     1.43867  -0.79641   1.82329 
 H                     0.90056  -1.34445  -1.13796 
 H                     0.08517  -3.27561  -2.41056 
 H                     1.67122  -4.76917  -1.46096 
 H                     0.25931  -5.43277  -0.61219 
 H                    -2.08211   2.75945   0.61942 
 H                    -2.56463   4.49247  -1.10308 
 H                    -4.84145   4.67843  -2.08869 
 H                    -6.65568   3.12346  -1.3867 
 H                    -6.83458   0.43363  -0.18892 
 H                    -7.0811    1.47116   1.22956 
 H                    -5.82453  -0.17055   2.39225 
 H                    -3.71996   1.08754   2.54082 
 H                    -3.7074   -3.47186  -2.04634 
 H                    -5.14905  -2.54166  -1.34722 
 H                    -3.35332  -4.60659   0.18751 
 H                    -4.79196  -3.67374   0.88939 
 Cu                   -1.2439    0.21459   0.62546 
 S                     0.91541   1.92532  -0.82796 
 O                     0.24274   3.20709  -0.59726 
 O                     0.54252   0.90533   0.25136 
 Cl                   -0.45017   0.92436  -2.55655 
 C                     3.25401   3.93009  -0.1567 
 C                     3.19298   2.46462   0.14602 
 C                     4.10802   1.51232  -0.55099 
 H                     4.08402   1.70903  -1.64014 
 C                     3.82806   0.0393   -0.26368 
 H                     5.14643   1.75066  -0.23486 
 H                     3.84469  -0.12419   0.82944 
 C                     4.81177  -0.91591  -0.93382 
 H                     2.8041   -0.21084  -0.59161 
 H                     5.83123  -0.72416  -0.54727 
 H                     4.84602  -0.70687  -2.0204 
 C                     4.44552  -2.38209  -0.71206 
 H                     3.44309  -2.57117  -1.14188 
 H                     4.3501   -2.57387   0.37434 
 C                     5.44073  -3.37372  -1.31049 
 H                     5.52278  -3.19657  -2.39962 
 C                     5.05396  -4.82786  -1.05709 
 H                     6.44574  -3.18152  -0.8895 
 H                     4.06007  -5.05589  -1.48416 
 H                     5.00984  -5.04379   0.02596 
 H                     5.78182  -5.52482  -1.50921 
 H                     3.49352   4.1075   -1.21864 
 H                     2.28831   4.41534   0.06426 
 H                     2.85613   2.19349   1.1554 
 C                     4.29078   4.67142   0.66053 
 F                     4.28389   5.98051   0.3792 
 F                     4.0732    4.55231   1.97787 
 F                     5.53756   4.23204   0.43283 
 
 Stoichiometry    C32H36ClCuF3N2O4S(1+)
 Framework group  C1[X(C32H36ClCuF3N2O4S)]
 Deg. of freedom   234
 Full point group                 C1      NOp   1
 Largest Abelian subgroup         C1      NOp   1
 Largest concise Abelian subgroup C1      NOp   1
                         Standard orientation:                         
 ---------------------------------------------------------------------
 Center     Atomic      Atomic             Coordinates (Angstroms)
 Number     Number       Type             X           Y           Z
 ---------------------------------------------------------------------
      1          6           0        2.152606   -4.629218    1.515579
      2          6           0        2.618684   -3.907097    2.616670
      3          6           0        2.359086   -2.536860    2.732650
      4          6           0        1.632814   -1.869501    1.744638
      5          6           0        1.174335   -2.594730    0.647246
      6          6           0        1.422935   -3.964188    0.531208
      7          6           0        0.373182   -2.095130   -0.533637
      8          6           0        0.018220   -3.379312   -1.320100
      9          6           0        0.861326   -4.520814   -0.753809
     10          8           0       -1.392910   -3.554064   -1.011784
     11          7           0       -0.939493   -1.571775   -0.143339
     12          6           0       -1.827308   -2.462393   -0.413255
     13          6           0       -3.273719   -2.396786   -0.138140
     14          6           0       -4.109012    1.981385    0.573184
     15          6           0       -3.085872    2.845715    0.190076
     16          6           0       -3.358272    3.815069   -0.776122
     17          6           0       -4.638923    3.914140   -1.332407
     18          6           0       -5.659782    3.043765   -0.940944
     19          6           0       -5.385449    2.065572    0.014829
     20          6           0       -6.310063    1.015816    0.585773
     21          6           0       -5.395067    0.116022    1.424755
     22          6           0       -4.010887    0.808285    1.517712
     23          8           0       -5.086349   -1.124533    0.730224
     24          7           0       -3.092913   -0.211507    0.997313
     25          6           0       -3.784630   -1.201000    0.551328
     26          6           0       -4.206466   -3.065014   -1.161979
     27          6           0       -3.998743   -3.724691    0.137431
     28          1           0        2.358151   -5.700151    1.427796
     29          1           0        3.191632   -4.417838    3.396418
     30          1           0        2.730769   -1.984547    3.600719
     31          1           0        1.438674   -0.796405    1.823294
     32          1           0        0.900559   -1.344447   -1.137956
     33          1           0        0.085169   -3.275605   -2.410563
     34          1           0        1.671218   -4.769171   -1.460956
     35          1           0        0.259307   -5.432767   -0.612192
     36          1           0       -2.082115    2.759454    0.619416
     37          1           0       -2.564624    4.492466   -1.103079
     38          1           0       -4.841444    4.678427   -2.088691
     39          1           0       -6.655677    3.123465   -1.386699
     40          1           0       -6.834580    0.433634   -0.188919
     41          1           0       -7.081100    1.471163    1.229562
     42          1           0       -5.824531   -0.170545    2.392248
     43          1           0       -3.719958    1.087538    2.540819
     44          1           0       -3.707405   -3.471861   -2.046341
     45          1           0       -5.149045   -2.541659   -1.347220
     46          1           0       -3.353318   -4.606586    0.187510
     47          1           0       -4.791961   -3.673740    0.889389
     48         29           0       -1.243904    0.214590    0.625464
     49         16           0        0.915411    1.925317   -0.827959
     50          8           0        0.242736    3.207087   -0.597255
     51          8           0        0.542524    0.905334    0.251355
     52         17           0       -0.450172    0.924360   -2.556553
     53          6           0        3.254015    3.930093   -0.156704
     54          6           0        3.192982    2.464620    0.146018
     55          6           0        4.108016    1.512317   -0.550993
     56          1           0        4.084022    1.709034   -1.640143
     57          6           0        3.828055    0.039300   -0.263680
     58          1           0        5.146427    1.750659   -0.234858
     59          1           0        3.844685   -0.124191    0.829439
     60          6           0        4.811772   -0.915913   -0.933816
     61          1           0        2.804099   -0.210836   -0.591611
     62          1           0        5.831230   -0.724165   -0.547270
     63          1           0        4.846020   -0.706875   -2.020397
     64          6           0        4.445517   -2.382091   -0.712056
     65          1           0        3.443091   -2.571165   -1.141877
     66          1           0        4.350104   -2.573869    0.374340
     67          6           0        5.440734   -3.373725   -1.310486
     68          1           0        5.522779   -3.196574   -2.399623
     69          6           0        5.053960   -4.827856   -1.057092
     70          1           0        6.445740   -3.181520   -0.889498
     71          1           0        4.060073   -5.055891   -1.484162
     72          1           0        5.009842   -5.043788    0.025964
     73          1           0        5.781818   -5.524824   -1.509213
     74          1           0        3.493525    4.107499   -1.218640
     75          1           0        2.288316    4.415339    0.064263
     76          1           0        2.856129    2.193491    1.155403
     77          6           0        4.290784    4.671415    0.660531
     78          9           0        4.283887    5.980510    0.379198
     79          9           0        4.073200    4.552311    1.977865
     80          9           0        5.537557    4.232042    0.432831
 ---------------------------------------------------------------------
 Rotational constants (GHZ):           0.0747736           0.0553688           0.0361415
 Standard basis: def2SVPP (5D, 7F)
 There are   751 symmetry adapted cartesian basis functions of A   symmetry.
 There are   706 symmetry adapted basis functions of A   symmetry.
   706 basis functions,  1314 primitive gaussians,   751 cartesian basis functions
   181 alpha electrons      181 beta electrons
       nuclear repulsion energy      7138.8104222266 Hartrees.
 NAtoms=   80 NActive=   80 NUniq=   80 SFac= 1.00D+00 NAtFMM=   60 NAOKFM=T Big=T
 Integral buffers will be    131072 words long.
 Raffenetti 2 integral format.
 Two-electron integral symmetry is turned on.
 Nuclear repulsion after empirical dispersion term =     7138.7244502001 Hartrees.
 ------------------------------------------------------------------------------
 Polarizable Continuum Model (PCM)
 =================================
 Model                : PCM.
 Atomic radii         : SMD-Coulomb.
 Polarization charges : Total charges.
 Charge compensation  : None.
 Solution method      : On-the-fly selection.
 Cavity type          : VdW (van der Waals Surface) (Alpha=1.000).
 Cavity algorithm     : GePol (No added spheres)
                        Default sphere list used, NSphG=   80.
                        Lebedev-Laikov grids with approx.  5.0 points / Ang**2.
                        Smoothing algorithm: York/Karplus (Gamma=1.0000).
                        Polarization charges: spherical gaussians, with
                                              point-specific exponents (IZeta= 3).
                        Self-potential: point-specific (ISelfS= 7).
                        Self-field    : sphere-specific E.n sum rule (ISelfD= 2).
 Solvent              : Acetonitrile, Eps=  35.688000 Eps(inf)=   1.806874
 ------------------------------------------------------------------------------
 ------------------------------------------------------------------------------
 Atomic radii for non-electrostatic terms: SMD-CDS.
 ------------------------------------------------------------------------------
 Nuclear repulsion after PCM non-electrostatic terms =     7138.7126080248 Hartrees.
 One-electron integrals computed using PRISM.
   1 Symmetry operations used in ECPInt.
 ECPInt:  NShTT=   59340 NPrTT=  246077 LenC2=   47509 LenP2D=  119803.
 LDataN:  DoStor=T MaxTD1= 4 Len=   56
 NBasis=   706 RedAO= T EigKep=  2.49D-04  NBF=   706
 NBsUse=   706 1.00D-06 EigRej= -1.00D+00 NBFU=   706
 ExpMin= 3.30D-02 ExpMax= 7.64D+04 ExpMxC= 1.15D+04 IAcc=3 IRadAn=         5 AccDes= 0.00D+00
 Harris functional with IExCor= 4639 and IRadAn=       5 diagonalized for initial guess.
 HarFok:  IExCor= 4639 AccDes= 0.00D+00 IRadAn=         5 IDoV= 1 UseB2=F ITyADJ=14
 ICtDFT=  3500011 ScaDFX=  1.000000  1.000000  1.000000  1.000000
 FoFCou: FMM=F IPFlag=           0 FMFlag=      100000 FMFlg1=        2001
         NFxFlg=           0 DoJE=T BraDBF=F KetDBF=T FulRan=T
         wScrn=  0.000000 ICntrl=       500 IOpCl=  0 I1Cent=   200000004 NGrid=           0
         NMat0=    1 NMatS0=      1 NMatT0=    0 NMatD0=    1 NMtDS0=    0 NMtDT0=    0
 Petite list used in FoFCou.
 Initial guess <Sx>= 0.0000 <Sy>= 0.0000 <Sz>= 0.0000 <S**2>=-0.0000 S=-0.0000
 Requested convergence on RMS density matrix=1.00D-08 within 128 cycles.
 Requested convergence on MAX density matrix=1.00D-06.
 Requested convergence on             energy=1.00D-06.
 No special actions if energy rises.
 Inv3:  Mode=1 IEnd=    91444323.
 Iteration    1 A*A^-1 deviation from unit magnitude is 7.66D-15 for   5500.
 Iteration    1 A*A^-1 deviation from orthogonality  is 3.62D-15 for   3441    548.
 Iteration    1 A^-1*A deviation from unit magnitude is 7.22D-15 for   5500.
 Iteration    1 A^-1*A deviation from orthogonality  is 2.59D-15 for   5506   5488.
 EnCoef did   100 forward-backward iterations
 EnCoef did   100 forward-backward iterations
 EnCoef did     3 forward-backward iterations
 EnCoef did     2 forward-backward iterations
 Restarting incremental Fock formation.
 Error on total polarization charges =  0.05099
 SCF Done:  E(UwB97XD) =  -4447.26348458     A.U. after   25 cycles
            NFock= 25  Conv=0.92D-08     -V/T= 2.0053
 <Sx>= 0.0000 <Sy>= 0.0000 <Sz>= 0.0000 <S**2>=-0.0000 S=-0.0000
 <L.S>= 0.000000000000E+00
 SMD-CDS (non-electrostatic) energy       (kcal/mol) =      -7.43
 (included in total energy above)
 Annihilation of the first spin contaminant:
 S**2 before annihilation    -0.0000,   after    -0.0000
 QCSCF skips out because SCF is already converged.

 **********************************************************************

            Population analysis using the SCF Density.

 **********************************************************************

 Orbital symmetries:
 Alpha Orbitals:
       Occupied  (A) (A) (A) (A) (A) (A) (A) (A) (A) (A) (A) (A)
                 (A) (A) (A) (A) (A) (A) (A) (A) (A) (A) (A) (A)
                 (A) (A) (A) (A) (A) (A) (A) (A) (A) (A) (A) (A)
                 (A) (A) (A) (A) (A) (A) (A) (A) (A) (A) (A) (A)
                 (A) (A) (A) (A) (A) (A) (A) (A) (A) (A) (A) (A)
                 (A) (A) (A) (A) (A) (A) (A) (A) (A) (A) (A) (A)
                 (A) (A) (A) (A) (A) (A) (A) (A) (A) (A) (A) (A)
                 (A) (A) (A) (A) (A) (A) (A) (A) (A) (A) (A) (A)
                 (A) (A) (A) (A) (A) (A) (A) (A) (A) (A) (A) (A)
                 (A) (A) (A) (A) (A) (A) (A) (A) (A) (A) (A) (A)
                 (A) (A) (A) (A) (A) (A) (A) (A) (A) (A) (A) (A)
                 (A) (A) (A) (A) (A) (A) (A) (A) (A) (A) (A) (A)
                 (A) (A) (A) (A) (A) (A) (A) (A) (A) (A) (A) (A)
                 (A) (A) (A) (A) (A) (A) (A) (A) (A) (A) (A) (A)
                 (A) (A) (A) (A) (A) (A) (A) (A) (A) (A) (A) (A)
                 (A)
       Virtual   (A) (A) (A) (A) (A) (A) (A) (A) (A) (A) (A) (A)
                 (A) (A) (A) (A) (A) (A) (A) (A) (A) (A) (A) (A)
                 (A) (A) (A) (A) (A) (A) (A) (A) (A) (A) (A) (A)
                 (A) (A) (A) (A) (A) (A) (A) (A) (A) (A) (A) (A)
                 (A) (A) (A) (A) (A) (A) (A) (A) (A) (A) (A) (A)
                 (A) (A) (A) (A) (A) (A) (A) (A) (A) (A) (A) (A)
                 (A) (A) (A) (A) (A) (A) (A) (A) (A) (A) (A) (A)
                 (A) (A) (A) (A) (A) (A) (A) (A) (A) (A) (A) (A)
                 (A) (A) (A) (A) (A) (A) (A) (A) (A) (A) (A) (A)
                 (A) (A) (A) (A) (A) (A) (A) (A) (A) (A) (A) (A)
                 (A) (A) (A) (A) (A) (A) (A) (A) (A) (A) (A) (A)
                 (A) (A) (A) (A) (A) (A) (A) (A) (A) (A) (A) (A)
                 (A) (A) (A) (A) (A) (A) (A) (A) (A) (A) (A) (A)
                 (A) (A) (A) (A) (A) (A) (A) (A) (A) (A) (A) (A)
                 (A) (A) (A) (A) (A) (A) (A) (A) (A) (A) (A) (A)
                 (A) (A) (A) (A) (A) (A) (A) (A) (A) (A) (A) (A)
                 (A) (A) (A) (A) (A) (A) (A) (A) (A) (A) (A) (A)
                 (A) (A) (A) (A) (A) (A) (A) (A) (A) (A) (A) (A)
                 (A) (A) (A) (A) (A) (A) (A) (A) (A) (A) (A) (A)
                 (A) (A) (A) (A) (A) (A) (A) (A) (A) (A) (A) (A)
                 (A) (A) (A) (A) (A) (A) (A) (A) (A) (A) (A) (A)
                 (A) (A) (A) (A) (A) (A) (A) (A) (A) (A) (A) (A)
                 (A) (A) (A) (A) (A) (A) (A) (A) (A) (A) (A) (A)
                 (A) (A) (A) (A) (A) (A) (A) (A) (A) (A) (A) (A)
                 (A) (A) (A) (A) (A) (A) (A) (A) (A) (A) (A) (A)
                 (A) (A) (A) (A) (A) (A) (A) (A) (A) (A) (A) (A)
                 (A) (A) (A) (A) (A) (A) (A) (A) (A) (A) (A) (A)
                 (A) (A) (A) (A) (A) (A) (A) (A) (A) (A) (A) (A)
                 (A) (A) (A) (A) (A) (A) (A) (A) (A) (A) (A) (A)
                 (A) (A) (A) (A) (A) (A) (A) (A) (A) (A) (A) (A)
                 (A) (A) (A) (A) (A) (A) (A) (A) (A) (A) (A) (A)
                 (A) (A) (A) (A) (A) (A) (A) (A) (A) (A) (A) (A)
                 (A) (A) (A) (A) (A) (A) (A) (A) (A) (A) (A) (A)
                 (A) (A) (A) (A) (A) (A) (A) (A) (A) (A) (A) (A)
                 (A) (A) (A) (A) (A) (A) (A) (A) (A) (A) (A) (A)
                 (A) (A) (A) (A) (A) (A) (A) (A) (A) (A) (A) (A)
                 (A) (A) (A) (A) (A) (A) (A) (A) (A) (A) (A) (A)
                 (A) (A) (A) (A) (A) (A) (A) (A) (A) (A) (A) (A)
                 (A) (A) (A) (A) (A) (A) (A) (A) (A) (A) (A) (A)
                 (A) (A) (A) (A) (A) (A) (A) (A) (A) (A) (A) (A)
                 (A) (A) (A) (A) (A) (A) (A) (A) (A) (A) (A) (A)
                 (A) (A) (A) (A) (A) (A) (A) (A) (A) (A) (A) (A)
                 (A) (A) (A) (A) (A) (A) (A) (A) (A) (A) (A) (A)
                 (A) (A) (A) (A) (A) (A) (A) (A) (A)
 Beta  Orbitals:
       Occupied  (A) (A) (A) (A) (A) (A) (A) (A) (A) (A) (A) (A)
                 (A) (A) (A) (A) (A) (A) (A) (A) (A) (A) (A) (A)
                 (A) (A) (A) (A) (A) (A) (A) (A) (A) (A) (A) (A)
                 (A) (A) (A) (A) (A) (A) (A) (A) (A) (A) (A) (A)
                 (A) (A) (A) (A) (A) (A) (A) (A) (A) (A) (A) (A)
                 (A) (A) (A) (A) (A) (A) (A) (A) (A) (A) (A) (A)
                 (A) (A) (A) (A) (A) (A) (A) (A) (A) (A) (A) (A)
                 (A) (A) (A) (A) (A) (A) (A) (A) (A) (A) (A) (A)
                 (A) (A) (A) (A) (A) (A) (A) (A) (A) (A) (A) (A)
                 (A) (A) (A) (A) (A) (A) (A) (A) (A) (A) (A) (A)
                 (A) (A) (A) (A) (A) (A) (A) (A) (A) (A) (A) (A)
                 (A) (A) (A) (A) (A) (A) (A) (A) (A) (A) (A) (A)
                 (A) (A) (A) (A) (A) (A) (A) (A) (A) (A) (A) (A)
                 (A) (A) (A) (A) (A) (A) (A) (A) (A) (A) (A) (A)
                 (A) (A) (A) (A) (A) (A) (A) (A) (A) (A) (A) (A)
                 (A)
       Virtual   (A) (A) (A) (A) (A) (A) (A) (A) (A) (A) (A) (A)
                 (A) (A) (A) (A) (A) (A) (A) (A) (A) (A) (A) (A)
                 (A) (A) (A) (A) (A) (A) (A) (A) (A) (A) (A) (A)
                 (A) (A) (A) (A) (A) (A) (A) (A) (A) (A) (A) (A)
                 (A) (A) (A) (A) (A) (A) (A) (A) (A) (A) (A) (A)
                 (A) (A) (A) (A) (A) (A) (A) (A) (A) (A) (A) (A)
                 (A) (A) (A) (A) (A) (A) (A) (A) (A) (A) (A) (A)
                 (A) (A) (A) (A) (A) (A) (A) (A) (A) (A) (A) (A)
                 (A) (A) (A) (A) (A) (A) (A) (A) (A) (A) (A) (A)
                 (A) (A) (A) (A) (A) (A) (A) (A) (A) (A) (A) (A)
                 (A) (A) (A) (A) (A) (A) (A) (A) (A) (A) (A) (A)
                 (A) (A) (A) (A) (A) (A) (A) (A) (A) (A) (A) (A)
                 (A) (A) (A) (A) (A) (A) (A) (A) (A) (A) (A) (A)
                 (A) (A) (A) (A) (A) (A) (A) (A) (A) (A) (A) (A)
                 (A) (A) (A) (A) (A) (A) (A) (A) (A) (A) (A) (A)
                 (A) (A) (A) (A) (A) (A) (A) (A) (A) (A) (A) (A)
                 (A) (A) (A) (A) (A) (A) (A) (A) (A) (A) (A) (A)
                 (A) (A) (A) (A) (A) (A) (A) (A) (A) (A) (A) (A)
                 (A) (A) (A) (A) (A) (A) (A) (A) (A) (A) (A) (A)
                 (A) (A) (A) (A) (A) (A) (A) (A) (A) (A) (A) (A)
                 (A) (A) (A) (A) (A) (A) (A) (A) (A) (A) (A) (A)
                 (A) (A) (A) (A) (A) (A) (A) (A) (A) (A) (A) (A)
                 (A) (A) (A) (A) (A) (A) (A) (A) (A) (A) (A) (A)
                 (A) (A) (A) (A) (A) (A) (A) (A) (A) (A) (A) (A)
                 (A) (A) (A) (A) (A) (A) (A) (A) (A) (A) (A) (A)
                 (A) (A) (A) (A) (A) (A) (A) (A) (A) (A) (A) (A)
                 (A) (A) (A) (A) (A) (A) (A) (A) (A) (A) (A) (A)
                 (A) (A) (A) (A) (A) (A) (A) (A) (A) (A) (A) (A)
                 (A) (A) (A) (A) (A) (A) (A) (A) (A) (A) (A) (A)
                 (A) (A) (A) (A) (A) (A) (A) (A) (A) (A) (A) (A)
                 (A) (A) (A) (A) (A) (A) (A) (A) (A) (A) (A) (A)
                 (A) (A) (A) (A) (A) (A) (A) (A) (A) (A) (A) (A)
                 (A) (A) (A) (A) (A) (A) (A) (A) (A) (A) (A) (A)
                 (A) (A) (A) (A) (A) (A) (A) (A) (A) (A) (A) (A)
                 (A) (A) (A) (A) (A) (A) (A) (A) (A) (A) (A) (A)
                 (A) (A) (A) (A) (A) (A) (A) (A) (A) (A) (A) (A)
                 (A) (A) (A) (A) (A) (A) (A) (A) (A) (A) (A) (A)
                 (A) (A) (A) (A) (A) (A) (A) (A) (A) (A) (A) (A)
                 (A) (A) (A) (A) (A) (A) (A) (A) (A) (A) (A) (A)
                 (A) (A) (A) (A) (A) (A) (A) (A) (A) (A) (A) (A)
                 (A) (A) (A) (A) (A) (A) (A) (A) (A) (A) (A) (A)
                 (A) (A) (A) (A) (A) (A) (A) (A) (A) (A) (A) (A)
                 (A) (A) (A) (A) (A) (A) (A) (A) (A) (A) (A) (A)
                 (A) (A) (A) (A) (A) (A) (A) (A) (A)
 The electronic state is 1-A.
 Alpha  occ. eigenvalues -- -323.24201-101.63019 -89.21167 -38.96334 -34.16209
 Alpha  occ. eigenvalues --  -34.15927 -34.15860 -24.86552 -24.86513 -24.86394
 Alpha  occ. eigenvalues --  -19.32149 -19.31627 -19.28944 -19.27688 -14.46525
 Alpha  occ. eigenvalues --  -14.45468 -10.57416 -10.44486 -10.42880 -10.42227
 Alpha  occ. eigenvalues --  -10.36662 -10.36317 -10.35814 -10.35015 -10.34337
 Alpha  occ. eigenvalues --  -10.33878 -10.33245 -10.32417 -10.32347 -10.31098
 Alpha  occ. eigenvalues --  -10.30965 -10.30765 -10.30681 -10.30301 -10.30272
 Alpha  occ. eigenvalues --  -10.30264 -10.30261 -10.30249 -10.30215 -10.30172
 Alpha  occ. eigenvalues --  -10.30129 -10.30125 -10.30079 -10.29943 -10.28667
 Alpha  occ. eigenvalues --  -10.28150 -10.28052 -10.27476  -9.53553  -8.24011
 Alpha  occ. eigenvalues --   -7.28745  -7.28105  -7.28080  -6.19359  -6.19295
 Alpha  occ. eigenvalues --   -6.18851  -4.37718  -2.86939  -2.86218  -2.86074
 Alpha  occ. eigenvalues --   -1.42529  -1.32861  -1.32799  -1.22586  -1.22005
 Alpha  occ. eigenvalues --   -1.20607  -1.10128  -1.03267  -1.01978  -1.00477
 Alpha  occ. eigenvalues --   -0.97192  -0.96999  -0.96966  -0.91645  -0.91424
 Alpha  occ. eigenvalues --   -0.90908  -0.87945  -0.86045  -0.85892  -0.85371
 Alpha  occ. eigenvalues --   -0.83609  -0.83403  -0.83235  -0.80966  -0.79491
 Alpha  occ. eigenvalues --   -0.79373  -0.76055  -0.75900  -0.74611  -0.74044
 Alpha  occ. eigenvalues --   -0.72801  -0.72088  -0.71177  -0.70754  -0.70314
 Alpha  occ. eigenvalues --   -0.69392  -0.69240  -0.68508  -0.68323  -0.67473
 Alpha  occ. eigenvalues --   -0.67188  -0.66528  -0.65903  -0.65155  -0.63601
 Alpha  occ. eigenvalues --   -0.62020  -0.61201  -0.60799  -0.59494  -0.59128
 Alpha  occ. eigenvalues --   -0.58776  -0.58290  -0.58152  -0.57998  -0.57481
 Alpha  occ. eigenvalues --   -0.56757  -0.56303  -0.56170  -0.55827  -0.55662
 Alpha  occ. eigenvalues --   -0.55200  -0.54635  -0.54522  -0.54457  -0.54054
 Alpha  occ. eigenvalues --   -0.53488  -0.53054  -0.52867  -0.52709  -0.52151
 Alpha  occ. eigenvalues --   -0.51605  -0.51390  -0.50714  -0.50691  -0.50491
 Alpha  occ. eigenvalues --   -0.50298  -0.49961  -0.49744  -0.49654  -0.49112
 Alpha  occ. eigenvalues --   -0.48658  -0.48112  -0.47854  -0.47546  -0.46980
 Alpha  occ. eigenvalues --   -0.46681  -0.45997  -0.45621  -0.45004  -0.44820
 Alpha  occ. eigenvalues --   -0.44695  -0.44410  -0.43659  -0.43298  -0.43182
 Alpha  occ. eigenvalues --   -0.43012  -0.42650  -0.42423  -0.42303  -0.42219
 Alpha  occ. eigenvalues --   -0.42072  -0.41292  -0.40859  -0.40360  -0.40030
 Alpha  occ. eigenvalues --   -0.39777  -0.39525  -0.37236  -0.36867  -0.36455
 Alpha  occ. eigenvalues --   -0.36153  -0.35949  -0.33567  -0.33465  -0.33319
 Alpha  occ. eigenvalues --   -0.32721  -0.32602  -0.32295  -0.32093  -0.31864
 Alpha  occ. eigenvalues --   -0.25931
 Alpha virt. eigenvalues --   -0.12215   0.00635   0.04682   0.04756   0.04812
 Alpha virt. eigenvalues --    0.05368   0.06567   0.07307   0.08891   0.11855
 Alpha virt. eigenvalues --    0.12722   0.13759   0.14273   0.15040   0.15292
 Alpha virt. eigenvalues --    0.15712   0.15792   0.16016   0.16367   0.16692
 Alpha virt. eigenvalues --    0.16872   0.17217   0.17651   0.18030   0.18297
 Alpha virt. eigenvalues --    0.18435   0.18615   0.19526   0.19795   0.19900
 Alpha virt. eigenvalues --    0.20253   0.20393   0.20596   0.20990   0.21378
 Alpha virt. eigenvalues --    0.21450   0.21572   0.22155   0.22202   0.22707
 Alpha virt. eigenvalues --    0.23017   0.23186   0.23406   0.24262   0.24292
 Alpha virt. eigenvalues --    0.24364   0.24916   0.24948   0.25285   0.25672
 Alpha virt. eigenvalues --    0.25701   0.26069   0.26260   0.26597   0.26920
 Alpha virt. eigenvalues --    0.27112   0.27613   0.27836   0.28432   0.28669
 Alpha virt. eigenvalues --    0.29095   0.29540   0.30258   0.30327   0.30596
 Alpha virt. eigenvalues --    0.30737   0.31582   0.32617   0.32939   0.33211
 Alpha virt. eigenvalues --    0.33985   0.34028   0.34363   0.34742   0.34862
 Alpha virt. eigenvalues --    0.35164   0.35417   0.36058   0.37042   0.37539
 Alpha virt. eigenvalues --    0.38318   0.39354   0.39447   0.40216   0.40431
 Alpha virt. eigenvalues --    0.40742   0.41958   0.42964   0.43295   0.44066
 Alpha virt. eigenvalues --    0.44506   0.44567   0.44992   0.46001   0.46115
 Alpha virt. eigenvalues --    0.47173   0.48080   0.48217   0.48644   0.49424
 Alpha virt. eigenvalues --    0.49724   0.50011   0.51195   0.51607   0.51644
 Alpha virt. eigenvalues --    0.51866   0.52540   0.52891   0.53228   0.53621
 Alpha virt. eigenvalues --    0.53674   0.54037   0.54467   0.54732   0.54755
 Alpha virt. eigenvalues --    0.55485   0.55656   0.56237   0.56934   0.57021
 Alpha virt. eigenvalues --    0.57128   0.57312   0.57736   0.58274   0.58305
 Alpha virt. eigenvalues --    0.58621   0.59221   0.59941   0.60166   0.60508
 Alpha virt. eigenvalues --    0.60951   0.61665   0.61957   0.62539   0.62679
 Alpha virt. eigenvalues --    0.63003   0.63425   0.63533   0.64539   0.65240
 Alpha virt. eigenvalues --    0.65809   0.66045   0.66440   0.67201   0.67336
 Alpha virt. eigenvalues --    0.67634   0.67806   0.67860   0.68368   0.68690
 Alpha virt. eigenvalues --    0.68767   0.68963   0.69259   0.69525   0.70125
 Alpha virt. eigenvalues --    0.70835   0.71471   0.71820   0.72114   0.72347
 Alpha virt. eigenvalues --    0.72543   0.72693   0.73202   0.73369   0.73730
 Alpha virt. eigenvalues --    0.73928   0.74406   0.74813   0.75079   0.75302
 Alpha virt. eigenvalues --    0.75641   0.75706   0.76001   0.76249   0.76436
 Alpha virt. eigenvalues --    0.76662   0.76969   0.77297   0.77610   0.77773
 Alpha virt. eigenvalues --    0.77900   0.78165   0.78294   0.78490   0.78714
 Alpha virt. eigenvalues --    0.79018   0.79297   0.79424   0.79791   0.80175
 Alpha virt. eigenvalues --    0.80404   0.80787   0.81007   0.81351   0.81562
 Alpha virt. eigenvalues --    0.81672   0.82229   0.82406   0.82542   0.82824
 Alpha virt. eigenvalues --    0.83001   0.83180   0.83661   0.83867   0.84368
 Alpha virt. eigenvalues --    0.84551   0.84701   0.84990   0.85284   0.85511
 Alpha virt. eigenvalues --    0.85614   0.85688   0.86148   0.86662   0.87350
 Alpha virt. eigenvalues --    0.87696   0.88360   0.88676   0.88994   0.89406
 Alpha virt. eigenvalues --    0.89653   0.89983   0.90221   0.90806   0.91256
 Alpha virt. eigenvalues --    0.91345   0.92195   0.92531   0.93433   0.93731
 Alpha virt. eigenvalues --    0.94170   0.94645   0.94741   0.95340   0.95596
 Alpha virt. eigenvalues --    0.96171   0.96381   0.97102   0.97439   0.97946
 Alpha virt. eigenvalues --    0.98586   0.98697   0.99630   1.00628   1.01467
 Alpha virt. eigenvalues --    1.02273   1.02976   1.03464   1.05638   1.05828
 Alpha virt. eigenvalues --    1.06674   1.07535   1.08260   1.08495   1.09369
 Alpha virt. eigenvalues --    1.09781   1.10334   1.12055   1.13464   1.14312
 Alpha virt. eigenvalues --    1.15204   1.15763   1.16147   1.16863   1.17573
 Alpha virt. eigenvalues --    1.17869   1.18297   1.19219   1.19530   1.20109
 Alpha virt. eigenvalues --    1.20144   1.21593   1.21921   1.23132   1.23506
 Alpha virt. eigenvalues --    1.24026   1.24789   1.24996   1.25512   1.26156
 Alpha virt. eigenvalues --    1.26933   1.27776   1.28147   1.29039   1.29817
 Alpha virt. eigenvalues --    1.32080   1.32227   1.33344   1.34609   1.35147
 Alpha virt. eigenvalues --    1.35586   1.36253   1.37646   1.37778   1.38611
 Alpha virt. eigenvalues --    1.39558   1.39603   1.40298   1.41169   1.42211
 Alpha virt. eigenvalues --    1.42731   1.43963   1.44502   1.47493   1.48009
 Alpha virt. eigenvalues --    1.48489   1.50948   1.51931   1.52582   1.53151
 Alpha virt. eigenvalues --    1.53593   1.54266   1.55111   1.55579   1.56622
 Alpha virt. eigenvalues --    1.56912   1.57495   1.57681   1.57974   1.58620
 Alpha virt. eigenvalues --    1.59535   1.60294   1.60872   1.61532   1.61954
 Alpha virt. eigenvalues --    1.62570   1.63447   1.65846   1.67280   1.68176
 Alpha virt. eigenvalues --    1.69305   1.69649   1.71067   1.71718   1.72985
 Alpha virt. eigenvalues --    1.74722   1.75231   1.75680   1.76700   1.77219
 Alpha virt. eigenvalues --    1.78244   1.80227   1.80842   1.81582   1.82306
 Alpha virt. eigenvalues --    1.82944   1.84149   1.84253   1.84321   1.85232
 Alpha virt. eigenvalues --    1.85919   1.86161   1.86453   1.87502   1.87946
 Alpha virt. eigenvalues --    1.88464   1.89520   1.90167   1.90393   1.91340
 Alpha virt. eigenvalues --    1.91866   1.92650   1.92710   1.93132   1.93859
 Alpha virt. eigenvalues --    1.94747   1.94840   1.95115   1.95778   1.96527
 Alpha virt. eigenvalues --    1.96929   1.97280   1.97715   1.98629   1.98820
 Alpha virt. eigenvalues --    1.99643   2.00279   2.00895   2.01326   2.01542
 Alpha virt. eigenvalues --    2.02250   2.02482   2.02686   2.03614   2.04625
 Alpha virt. eigenvalues --    2.06078   2.06574   2.07568   2.07783   2.08471
 Alpha virt. eigenvalues --    2.09012   2.10412   2.10652   2.11186   2.11526
 Alpha virt. eigenvalues --    2.12176   2.12803   2.15205   2.16005   2.17092
 Alpha virt. eigenvalues --    2.17455   2.18484   2.19225   2.20487   2.21229
 Alpha virt. eigenvalues --    2.21847   2.22437   2.24037   2.24138   2.24746
 Alpha virt. eigenvalues --    2.25133   2.25826   2.26645   2.26856   2.27148
 Alpha virt. eigenvalues --    2.27806   2.28500   2.29343   2.29880   2.30188
 Alpha virt. eigenvalues --    2.30774   2.31667   2.32469   2.32772   2.33406
 Alpha virt. eigenvalues --    2.33821   2.34902   2.35745   2.38124   2.38597
 Alpha virt. eigenvalues --    2.39470   2.39692   2.40998   2.41833   2.43792
 Alpha virt. eigenvalues --    2.44564   2.45564   2.47746   2.48938   2.49034
 Alpha virt. eigenvalues --    2.50238   2.50579   2.51197   2.54501   2.55018
 Alpha virt. eigenvalues --    2.55548   2.55693   2.56136   2.56862   2.57662
 Alpha virt. eigenvalues --    2.60701   2.62254   2.63185   2.64365   2.64484
 Alpha virt. eigenvalues --    2.65738   2.67360   2.67785   2.68405   2.69198
 Alpha virt. eigenvalues --    2.69264   2.70047   2.70586   2.70982   2.71543
 Alpha virt. eigenvalues --    2.73036   2.73501   2.74199   2.74395   2.75378
 Alpha virt. eigenvalues --    2.75805   2.76179   2.77889   2.79383   2.80115
 Alpha virt. eigenvalues --    2.81985   2.82603   2.85480   2.85856   2.87306
 Alpha virt. eigenvalues --    2.88364   2.88832   2.90512   2.91725   2.92179
 Alpha virt. eigenvalues --    2.92279   2.93499   2.96660   2.97292   2.97893
 Alpha virt. eigenvalues --    2.98858   3.00776   3.04877   3.07295   3.07352
 Alpha virt. eigenvalues --    3.08839   3.09885   3.11243   3.11368   3.11672
 Alpha virt. eigenvalues --    3.12701   3.13326   3.16178   3.18549   3.19275
 Alpha virt. eigenvalues --    3.22523   3.23793   3.24230   3.25620   3.29501
 Alpha virt. eigenvalues --    3.30510   3.31140   3.43201   3.44100   3.47397
 Alpha virt. eigenvalues --    3.47878   3.50289   3.53739   3.60762   3.62481
 Alpha virt. eigenvalues --    3.65981   3.72434   3.73398   3.91566   3.93225
  Beta  occ. eigenvalues -- -323.24201-101.63019 -89.21167 -38.96334 -34.16209
  Beta  occ. eigenvalues --  -34.15927 -34.15860 -24.86552 -24.86513 -24.86394
  Beta  occ. eigenvalues --  -19.32149 -19.31627 -19.28944 -19.27688 -14.46525
  Beta  occ. eigenvalues --  -14.45468 -10.57416 -10.44486 -10.42880 -10.42227
  Beta  occ. eigenvalues --  -10.36662 -10.36317 -10.35814 -10.35015 -10.34337
  Beta  occ. eigenvalues --  -10.33878 -10.33245 -10.32417 -10.32347 -10.31098
  Beta  occ. eigenvalues --  -10.30965 -10.30765 -10.30681 -10.30301 -10.30272
  Beta  occ. eigenvalues --  -10.30264 -10.30261 -10.30249 -10.30215 -10.30172
  Beta  occ. eigenvalues --  -10.30129 -10.30125 -10.30079 -10.29943 -10.28667
  Beta  occ. eigenvalues --  -10.28150 -10.28052 -10.27476  -9.53553  -8.24011
  Beta  occ. eigenvalues --   -7.28745  -7.28105  -7.28080  -6.19359  -6.19295
  Beta  occ. eigenvalues --   -6.18851  -4.37718  -2.86939  -2.86218  -2.86074
  Beta  occ. eigenvalues --   -1.42529  -1.32861  -1.32799  -1.22586  -1.22005
  Beta  occ. eigenvalues --   -1.20607  -1.10128  -1.03267  -1.01978  -1.00477
  Beta  occ. eigenvalues --   -0.97192  -0.96999  -0.96966  -0.91645  -0.91424
  Beta  occ. eigenvalues --   -0.90908  -0.87945  -0.86045  -0.85892  -0.85371
  Beta  occ. eigenvalues --   -0.83609  -0.83403  -0.83235  -0.80966  -0.79491
  Beta  occ. eigenvalues --   -0.79373  -0.76055  -0.75900  -0.74611  -0.74044
  Beta  occ. eigenvalues --   -0.72801  -0.72088  -0.71177  -0.70754  -0.70314
  Beta  occ. eigenvalues --   -0.69392  -0.69240  -0.68508  -0.68323  -0.67473
  Beta  occ. eigenvalues --   -0.67188  -0.66528  -0.65903  -0.65155  -0.63601
  Beta  occ. eigenvalues --   -0.62020  -0.61201  -0.60799  -0.59494  -0.59128
  Beta  occ. eigenvalues --   -0.58776  -0.58290  -0.58152  -0.57998  -0.57481
  Beta  occ. eigenvalues --   -0.56757  -0.56303  -0.56170  -0.55827  -0.55662
  Beta  occ. eigenvalues --   -0.55200  -0.54635  -0.54522  -0.54457  -0.54054
  Beta  occ. eigenvalues --   -0.53488  -0.53054  -0.52867  -0.52709  -0.52151
  Beta  occ. eigenvalues --   -0.51605  -0.51390  -0.50714  -0.50691  -0.50491
  Beta  occ. eigenvalues --   -0.50298  -0.49961  -0.49744  -0.49654  -0.49112
  Beta  occ. eigenvalues --   -0.48658  -0.48112  -0.47854  -0.47546  -0.46980
  Beta  occ. eigenvalues --   -0.46681  -0.45997  -0.45621  -0.45004  -0.44820
  Beta  occ. eigenvalues --   -0.44695  -0.44410  -0.43659  -0.43298  -0.43182
  Beta  occ. eigenvalues --   -0.43012  -0.42650  -0.42423  -0.42303  -0.42219
  Beta  occ. eigenvalues --   -0.42072  -0.41292  -0.40859  -0.40360  -0.40030
  Beta  occ. eigenvalues --   -0.39777  -0.39525  -0.37236  -0.36867  -0.36455
  Beta  occ. eigenvalues --   -0.36153  -0.35949  -0.33567  -0.33465  -0.33319
  Beta  occ. eigenvalues --   -0.32721  -0.32602  -0.32295  -0.32093  -0.31864
  Beta  occ. eigenvalues --   -0.25931
  Beta virt. eigenvalues --   -0.12215   0.00635   0.04682   0.04756   0.04812
  Beta virt. eigenvalues --    0.05368   0.06567   0.07307   0.08891   0.11855
  Beta virt. eigenvalues --    0.12722   0.13759   0.14273   0.15040   0.15292
  Beta virt. eigenvalues --    0.15712   0.15792   0.16016   0.16367   0.16692
  Beta virt. eigenvalues --    0.16872   0.17217   0.17651   0.18030   0.18297
  Beta virt. eigenvalues --    0.18435   0.18615   0.19526   0.19795   0.19900
  Beta virt. eigenvalues --    0.20253   0.20393   0.20596   0.20990   0.21378
  Beta virt. eigenvalues --    0.21450   0.21572   0.22155   0.22202   0.22707
  Beta virt. eigenvalues --    0.23017   0.23186   0.23406   0.24262   0.24292
  Beta virt. eigenvalues --    0.24364   0.24916   0.24948   0.25285   0.25672
  Beta virt. eigenvalues --    0.25701   0.26069   0.26260   0.26597   0.26920
  Beta virt. eigenvalues --    0.27112   0.27613   0.27836   0.28432   0.28669
  Beta virt. eigenvalues --    0.29095   0.29540   0.30258   0.30327   0.30596
  Beta virt. eigenvalues --    0.30737   0.31582   0.32617   0.32939   0.33211
  Beta virt. eigenvalues --    0.33985   0.34028   0.34363   0.34742   0.34862
  Beta virt. eigenvalues --    0.35164   0.35417   0.36058   0.37042   0.37539
  Beta virt. eigenvalues --    0.38318   0.39354   0.39447   0.40216   0.40431
  Beta virt. eigenvalues --    0.40742   0.41958   0.42964   0.43295   0.44066
  Beta virt. eigenvalues --    0.44506   0.44567   0.44992   0.46001   0.46115
  Beta virt. eigenvalues --    0.47173   0.48080   0.48217   0.48644   0.49424
  Beta virt. eigenvalues --    0.49724   0.50011   0.51195   0.51607   0.51644
  Beta virt. eigenvalues --    0.51866   0.52540   0.52891   0.53228   0.53621
  Beta virt. eigenvalues --    0.53674   0.54037   0.54467   0.54732   0.54755
  Beta virt. eigenvalues --    0.55485   0.55656   0.56237   0.56934   0.57021
  Beta virt. eigenvalues --    0.57128   0.57312   0.57736   0.58274   0.58305
  Beta virt. eigenvalues --    0.58621   0.59221   0.59941   0.60166   0.60508
  Beta virt. eigenvalues --    0.60951   0.61665   0.61957   0.62539   0.62679
  Beta virt. eigenvalues --    0.63003   0.63425   0.63533   0.64539   0.65240
  Beta virt. eigenvalues --    0.65809   0.66045   0.66440   0.67201   0.67336
  Beta virt. eigenvalues --    0.67634   0.67806   0.67860   0.68368   0.68690
  Beta virt. eigenvalues --    0.68767   0.68963   0.69259   0.69525   0.70125
  Beta virt. eigenvalues --    0.70835   0.71471   0.71820   0.72114   0.72347
  Beta virt. eigenvalues --    0.72543   0.72693   0.73202   0.73369   0.73730
  Beta virt. eigenvalues --    0.73928   0.74406   0.74813   0.75079   0.75302
  Beta virt. eigenvalues --    0.75641   0.75706   0.76001   0.76249   0.76436
  Beta virt. eigenvalues --    0.76662   0.76969   0.77297   0.77610   0.77773
  Beta virt. eigenvalues --    0.77900   0.78165   0.78294   0.78490   0.78714
  Beta virt. eigenvalues --    0.79018   0.79297   0.79424   0.79791   0.80175
  Beta virt. eigenvalues --    0.80404   0.80787   0.81007   0.81351   0.81562
  Beta virt. eigenvalues --    0.81672   0.82229   0.82406   0.82542   0.82824
  Beta virt. eigenvalues --    0.83001   0.83180   0.83661   0.83867   0.84368
  Beta virt. eigenvalues --    0.84551   0.84701   0.84990   0.85284   0.85511
  Beta virt. eigenvalues --    0.85614   0.85688   0.86148   0.86662   0.87350
  Beta virt. eigenvalues --    0.87696   0.88360   0.88676   0.88994   0.89406
  Beta virt. eigenvalues --    0.89653   0.89983   0.90221   0.90806   0.91256
  Beta virt. eigenvalues --    0.91345   0.92195   0.92531   0.93433   0.93731
  Beta virt. eigenvalues --    0.94170   0.94645   0.94741   0.95340   0.95596
  Beta virt. eigenvalues --    0.96171   0.96381   0.97102   0.97439   0.97946
  Beta virt. eigenvalues --    0.98586   0.98697   0.99630   1.00628   1.01467
  Beta virt. eigenvalues --    1.02273   1.02976   1.03464   1.05638   1.05828
  Beta virt. eigenvalues --    1.06674   1.07535   1.08260   1.08495   1.09369
  Beta virt. eigenvalues --    1.09781   1.10334   1.12055   1.13464   1.14312
  Beta virt. eigenvalues --    1.15204   1.15763   1.16147   1.16863   1.17573
  Beta virt. eigenvalues --    1.17869   1.18297   1.19219   1.19530   1.20109
  Beta virt. eigenvalues --    1.20144   1.21593   1.21921   1.23132   1.23506
  Beta virt. eigenvalues --    1.24026   1.24789   1.24996   1.25512   1.26156
  Beta virt. eigenvalues --    1.26933   1.27776   1.28147   1.29039   1.29817
  Beta virt. eigenvalues --    1.32080   1.32227   1.33344   1.34609   1.35147
  Beta virt. eigenvalues --    1.35586   1.36253   1.37646   1.37778   1.38611
  Beta virt. eigenvalues --    1.39558   1.39603   1.40298   1.41169   1.42211
  Beta virt. eigenvalues --    1.42731   1.43963   1.44502   1.47493   1.48009
  Beta virt. eigenvalues --    1.48489   1.50948   1.51931   1.52582   1.53151
  Beta virt. eigenvalues --    1.53593   1.54266   1.55111   1.55579   1.56622
  Beta virt. eigenvalues --    1.56912   1.57495   1.57681   1.57974   1.58620
  Beta virt. eigenvalues --    1.59535   1.60294   1.60872   1.61532   1.61954
  Beta virt. eigenvalues --    1.62570   1.63447   1.65846   1.67280   1.68176
  Beta virt. eigenvalues --    1.69305   1.69649   1.71067   1.71718   1.72985
  Beta virt. eigenvalues --    1.74722   1.75231   1.75680   1.76700   1.77219
  Beta virt. eigenvalues --    1.78244   1.80227   1.80842   1.81582   1.82306
  Beta virt. eigenvalues --    1.82944   1.84149   1.84253   1.84321   1.85232
  Beta virt. eigenvalues --    1.85919   1.86161   1.86453   1.87502   1.87946
  Beta virt. eigenvalues --    1.88464   1.89520   1.90167   1.90393   1.91340
  Beta virt. eigenvalues --    1.91866   1.92650   1.92710   1.93132   1.93859
  Beta virt. eigenvalues --    1.94747   1.94840   1.95115   1.95778   1.96527
  Beta virt. eigenvalues --    1.96929   1.97280   1.97715   1.98629   1.98820
  Beta virt. eigenvalues --    1.99643   2.00279   2.00895   2.01326   2.01542
  Beta virt. eigenvalues --    2.02250   2.02482   2.02686   2.03614   2.04625
  Beta virt. eigenvalues --    2.06078   2.06574   2.07568   2.07783   2.08471
  Beta virt. eigenvalues --    2.09012   2.10412   2.10652   2.11186   2.11526
  Beta virt. eigenvalues --    2.12176   2.12803   2.15205   2.16005   2.17092
  Beta virt. eigenvalues --    2.17455   2.18484   2.19225   2.20487   2.21229
  Beta virt. eigenvalues --    2.21847   2.22437   2.24037   2.24138   2.24746
  Beta virt. eigenvalues --    2.25133   2.25826   2.26645   2.26856   2.27148
  Beta virt. eigenvalues --    2.27806   2.28500   2.29343   2.29880   2.30188
  Beta virt. eigenvalues --    2.30774   2.31667   2.32469   2.32772   2.33406
  Beta virt. eigenvalues --    2.33821   2.34902   2.35745   2.38124   2.38597
  Beta virt. eigenvalues --    2.39470   2.39692   2.40998   2.41833   2.43792
  Beta virt. eigenvalues --    2.44564   2.45564   2.47746   2.48938   2.49034
  Beta virt. eigenvalues --    2.50238   2.50579   2.51197   2.54501   2.55018
  Beta virt. eigenvalues --    2.55548   2.55693   2.56136   2.56862   2.57662
  Beta virt. eigenvalues --    2.60701   2.62254   2.63185   2.64365   2.64484
  Beta virt. eigenvalues --    2.65738   2.67360   2.67785   2.68405   2.69198
  Beta virt. eigenvalues --    2.69264   2.70047   2.70586   2.70982   2.71543
  Beta virt. eigenvalues --    2.73036   2.73501   2.74199   2.74395   2.75378
  Beta virt. eigenvalues --    2.75805   2.76179   2.77889   2.79383   2.80115
  Beta virt. eigenvalues --    2.81985   2.82603   2.85480   2.85856   2.87306
  Beta virt. eigenvalues --    2.88364   2.88832   2.90512   2.91725   2.92179
  Beta virt. eigenvalues --    2.92279   2.93499   2.96660   2.97292   2.97893
  Beta virt. eigenvalues --    2.98858   3.00776   3.04877   3.07295   3.07352
  Beta virt. eigenvalues --    3.08839   3.09885   3.11243   3.11368   3.11672
  Beta virt. eigenvalues --    3.12701   3.13326   3.16178   3.18549   3.19275
  Beta virt. eigenvalues --    3.22523   3.23793   3.24230   3.25620   3.29501
  Beta virt. eigenvalues --    3.30510   3.31140   3.43201   3.44100   3.47397
  Beta virt. eigenvalues --    3.47878   3.50289   3.53739   3.60762   3.62481
  Beta virt. eigenvalues --    3.65981   3.72434   3.73398   3.91566   3.93225
          Condensed to atoms (all electrons):
          Atomic-Atomic Spin Densities.
 Mulliken charges and spin densities:
               1          2
     1  C   -0.181371  -0.000000
     2  C   -0.107188   0.000000
     3  C   -0.122109   0.000000
     4  C   -0.174075  -0.000000
     5  C    0.020088   0.000000
     6  C   -0.051053   0.000000
     7  C   -0.017064   0.000000
     8  C    0.049337  -0.000000
     9  C   -0.067412   0.000000
    10  O   -0.314081   0.000000
    11  N   -0.296235  -0.000000
    12  C    0.323749  -0.000000
    13  C   -0.268844   0.000000
    14  C    0.016332   0.000000
    15  C   -0.174025   0.000000
    16  C   -0.118001  -0.000000
    17  C   -0.106797   0.000000
    18  C   -0.180878   0.000000
    19  C   -0.053748   0.000000
    20  C   -0.044549  -0.000000
    21  C    0.033296   0.000000
    22  C    0.016888  -0.000000
    23  O   -0.308807  -0.000000
    24  N   -0.336339   0.000000
    25  C    0.344924  -0.000000
    26  C   -0.206619   0.000000
    27  C   -0.208390   0.000000
    28  H    0.109094  -0.000000
    29  H    0.122314  -0.000000
    30  H    0.119082   0.000000
    31  H    0.121937  -0.000000
    32  H    0.150264  -0.000000
    33  H    0.146316   0.000000
    34  H    0.172798  -0.000000
    35  H    0.145533  -0.000000
    36  H    0.108834   0.000000
    37  H    0.118703   0.000000
    38  H    0.123472   0.000000
    39  H    0.109512   0.000000
    40  H    0.146966   0.000000
    41  H    0.156547   0.000000
    42  H    0.154264   0.000000
    43  H    0.160027  -0.000000
    44  H    0.185107  -0.000000
    45  H    0.186014   0.000000
    46  H    0.185719  -0.000000
    47  H    0.185152  -0.000000
    48  Cu   0.550898   0.000000
    49  S    0.777797  -0.000000
    50  O   -0.460260  -0.000000
    51  O   -0.528561  -0.000000
    52  Cl  -0.383683   0.000000
    53  C   -0.231692   0.000000
    54  C   -0.109585  -0.000000
    55  C   -0.169572   0.000000
    56  H    0.189208  -0.000000
    57  C   -0.268977  -0.000000
    58  H    0.224926   0.000000
    59  H    0.138640   0.000000
    60  C   -0.172199   0.000000
    61  H    0.142976   0.000000
    62  H    0.109573  -0.000000
    63  H    0.107605  -0.000000
    64  C   -0.259221   0.000000
    65  H    0.121617  -0.000000
    66  H    0.106855  -0.000000
    67  C   -0.202997  -0.000000
    68  H    0.104347   0.000000
    69  C   -0.352562  -0.000000
    70  H    0.105272   0.000000
    71  H    0.133205   0.000000
    72  H    0.122069   0.000000
    73  H    0.126398  -0.000000
    74  H    0.220023  -0.000000
    75  H    0.223906  -0.000000
    76  H    0.256114   0.000000
    77  C    0.545268  -0.000000
    78  F   -0.175662  -0.000000
    79  F   -0.185066  -0.000000
    80  F   -0.181343  -0.000000
 Sum of Mulliken charges =   1.00000  -0.00000
 Mulliken charges and spin densities with hydrogens summed into heavy atoms:
               1          2
     1  C   -0.072277  -0.000000
     2  C    0.015126  -0.000000
     3  C   -0.003027   0.000000
     4  C   -0.052138  -0.000000
     5  C    0.020088   0.000000
     6  C   -0.051053   0.000000
     7  C    0.133200  -0.000000
     8  C    0.195653  -0.000000
     9  C    0.250920   0.000000
    10  O   -0.314081   0.000000
    11  N   -0.296235  -0.000000
    12  C    0.323749  -0.000000
    13  C   -0.268844   0.000000
    14  C    0.016332   0.000000
    15  C   -0.065192   0.000000
    16  C    0.000702  -0.000000
    17  C    0.016675   0.000000
    18  C   -0.071365   0.000000
    19  C   -0.053748   0.000000
    20  C    0.258964  -0.000000
    21  C    0.187560   0.000000
    22  C    0.176915  -0.000000
    23  O   -0.308807  -0.000000
    24  N   -0.336339   0.000000
    25  C    0.344924  -0.000000
    26  C    0.164502   0.000000
    27  C    0.162481   0.000000
    48  Cu   0.550898   0.000000
    49  S    0.777797  -0.000000
    50  O   -0.460260  -0.000000
    51  O   -0.528561  -0.000000
    52  Cl  -0.383683   0.000000
    53  C    0.212237   0.000000
    54  C    0.146529  -0.000000
    55  C    0.244563   0.000000
    57  C    0.012639  -0.000000
    60  C    0.044979   0.000000
    64  C   -0.030749   0.000000
    67  C    0.006621  -0.000000
    69  C    0.029110  -0.000000
    77  C    0.545268  -0.000000
    78  F   -0.175662  -0.000000
    79  F   -0.185066  -0.000000
    80  F   -0.181343  -0.000000
 Electronic spatial extent (au):  <R**2>=          28924.2472
 Charge=              1.0000 electrons
 Dipole moment (field-independent basis, Debye):
    X=              1.7914    Y=             -1.8948    Z=              2.7429  Tot=              3.7846
 Quadrupole moment (field-independent basis, Debye-Ang):
   XX=           -176.8607   YY=           -237.5709   ZZ=           -266.1846
   XY=             19.0642   XZ=            -14.8234   YZ=              3.2199
 Traceless Quadrupole moment (field-independent basis, Debye-Ang):
   XX=             50.0114   YY=            -10.6988   ZZ=            -39.3125
   XY=             19.0642   XZ=            -14.8234   YZ=              3.2199
 Octapole moment (field-independent basis, Debye-Ang**2):
  XXX=           -190.2897  YYY=            -14.7305  ZZZ=             65.7029  XYY=             27.3115
  XXY=             64.8868  XXZ=             27.7892  XZZ=              5.3818  YZZ=             19.4029
  YYZ=            -43.1047  XYZ=            -25.5485
 Hexadecapole moment (field-independent basis, Debye-Ang**3):
 XXXX=         -17952.5459 YYYY=         -13695.7781 ZZZZ=          -2575.2225 XXXY=            486.5968
 XXXZ=           -215.0442 YYYX=            461.4574 YYYZ=           -100.3799 ZZZX=              8.0793
 ZZZY=            115.3502 XXYY=          -5556.8328 XXZZ=          -3548.0946 YYZZ=          -2693.7173
 XXYZ=           -173.3596 YYXZ=             44.2527 ZZXY=            120.1593
 N-N= 7.138712608025D+03 E-N=-2.474665417983D+04  KE= 4.423684948093D+03
                          Isotropic Fermi Contact Couplings
        Atom                 a.u.       MegaHertz       Gauss      10(-4) cm-1
     1  C(13)              0.00000       0.00000       0.00000       0.00000
     2  C(13)             -0.00000      -0.00000      -0.00000      -0.00000
     3  C(13)             -0.00000      -0.00000      -0.00000      -0.00000
     4  C(13)              0.00000       0.00000       0.00000       0.00000
     5  C(13)              0.00000       0.00000       0.00000       0.00000
     6  C(13)              0.00000       0.00000       0.00000       0.00000
     7  C(13)             -0.00000      -0.00000      -0.00000      -0.00000
     8  C(13)             -0.00000      -0.00000      -0.00000      -0.00000
     9  C(13)             -0.00000      -0.00000      -0.00000      -0.00000
    10  O(17)             -0.00000       0.00000       0.00000       0.00000
    11  N(14)              0.00000       0.00000       0.00000       0.00000
    12  C(13)              0.00000       0.00000       0.00000       0.00000
    13  C(13)             -0.00000      -0.00000      -0.00000      -0.00000
    14  C(13)              0.00000       0.00000       0.00000       0.00000
    15  C(13)              0.00000       0.00000       0.00000       0.00000
    16  C(13)              0.00000       0.00000       0.00000       0.00000
    17  C(13)             -0.00000      -0.00000      -0.00000      -0.00000
    18  C(13)             -0.00000      -0.00000      -0.00000      -0.00000
    19  C(13)             -0.00000      -0.00000      -0.00000      -0.00000
    20  C(13)              0.00000       0.00000       0.00000       0.00000
    21  C(13)              0.00000       0.00000       0.00000       0.00000
    22  C(13)              0.00000       0.00000       0.00000       0.00000
    23  O(17)             -0.00000       0.00000       0.00000       0.00000
    24  N(14)             -0.00000      -0.00000      -0.00000      -0.00000
    25  C(13)             -0.00000      -0.00000      -0.00000      -0.00000
    26  C(13)              0.00000       0.00000       0.00000       0.00000
    27  C(13)             -0.00000      -0.00000      -0.00000      -0.00000
    28  H(1)              -0.00000      -0.00000      -0.00000      -0.00000
    29  H(1)              -0.00000      -0.00000      -0.00000      -0.00000
    30  H(1)               0.00000       0.00000       0.00000       0.00000
    31  H(1)              -0.00000      -0.00000      -0.00000      -0.00000
    32  H(1)              -0.00000      -0.00000      -0.00000      -0.00000
    33  H(1)               0.00000       0.00000       0.00000       0.00000
    34  H(1)              -0.00000      -0.00000      -0.00000      -0.00000
    35  H(1)              -0.00000      -0.00000      -0.00000      -0.00000
    36  H(1)               0.00000       0.00000       0.00000       0.00000
    37  H(1)               0.00000       0.00000       0.00000       0.00000
    38  H(1)               0.00000       0.00000       0.00000       0.00000
    39  H(1)               0.00000       0.00000       0.00000       0.00000
    40  H(1)              -0.00000      -0.00000      -0.00000      -0.00000
    41  H(1)               0.00000       0.00000       0.00000       0.00000
    42  H(1)               0.00000       0.00000       0.00000       0.00000
    43  H(1)              -0.00000      -0.00000      -0.00000      -0.00000
    44  H(1)               0.00000       0.00000       0.00000       0.00000
    45  H(1)              -0.00000      -0.00000      -0.00000      -0.00000
    46  H(1)               0.00000       0.00000       0.00000       0.00000
    47  H(1)              -0.00000      -0.00000      -0.00000      -0.00000
    48  Cu(63)             0.00000       0.00000       0.00000       0.00000
    49  S(33)              0.00000       0.00000       0.00000       0.00000
    50  O(17)             -0.00000       0.00000       0.00000       0.00000
    51  O(17)              0.00000      -0.00000      -0.00000      -0.00000
    52  Cl(35)            -0.00000      -0.00000      -0.00000      -0.00000
    53  C(13)             -0.00000      -0.00000      -0.00000      -0.00000
    54  C(13)              0.00000       0.00000       0.00000       0.00000
    55  C(13)             -0.00000      -0.00000      -0.00000      -0.00000
    56  H(1)               0.00000       0.00000       0.00000       0.00000
    57  C(13)              0.00000       0.00000       0.00000       0.00000
    58  H(1)               0.00000       0.00000       0.00000       0.00000
    59  H(1)               0.00000       0.00000       0.00000       0.00000
    60  C(13)              0.00000       0.00000       0.00000       0.00000
    61  H(1)               0.00000       0.00000       0.00000       0.00000
    62  H(1)              -0.00000      -0.00000      -0.00000      -0.00000
    63  H(1)               0.00000       0.00000       0.00000       0.00000
    64  C(13)             -0.00000      -0.00000      -0.00000      -0.00000
    65  H(1)              -0.00000      -0.00000      -0.00000      -0.00000
    66  H(1)              -0.00000      -0.00000      -0.00000      -0.00000
    67  C(13)             -0.00000      -0.00000      -0.00000      -0.00000
    68  H(1)               0.00000       0.00000       0.00000       0.00000
    69  C(13)             -0.00000      -0.00000      -0.00000      -0.00000
    70  H(1)               0.00000       0.00000       0.00000       0.00000
    71  H(1)               0.00000       0.00000       0.00000       0.00000
    72  H(1)               0.00000       0.00000       0.00000       0.00000
    73  H(1)              -0.00000      -0.00000      -0.00000      -0.00000
    74  H(1)              -0.00000      -0.00000      -0.00000      -0.00000
    75  H(1)              -0.00000      -0.00000      -0.00000      -0.00000
    76  H(1)              -0.00000      -0.00000      -0.00000      -0.00000
    77  C(13)              0.00000       0.00000       0.00000       0.00000
    78  F(19)              0.00000       0.00000       0.00000       0.00000
    79  F(19)             -0.00000      -0.00000      -0.00000      -0.00000
    80  F(19)             -0.00000      -0.00000      -0.00000      -0.00000
 --------------------------------------------------------
       Center         ----  Spin Dipole Couplings  ----
                      3XX-RR        3YY-RR        3ZZ-RR
 --------------------------------------------------------
     1   Atom        0.000000      0.000000     -0.000000
     2   Atom       -0.000000      0.000000     -0.000000
     3   Atom        0.000000      0.000000     -0.000000
     4   Atom        0.000000     -0.000000     -0.000000
     5   Atom        0.000000      0.000000     -0.000000
     6   Atom        0.000000     -0.000000     -0.000000
     7   Atom       -0.000000      0.000000     -0.000000
     8   Atom        0.000000     -0.000000      0.000000
     9   Atom       -0.000000      0.000000      0.000000
    10   Atom        0.000000     -0.000000      0.000000
    11   Atom        0.000000      0.000000     -0.000000
    12   Atom       -0.000000     -0.000000      0.000000
    13   Atom        0.000000      0.000000     -0.000000
    14   Atom        0.000000     -0.000000     -0.000000
    15   Atom        0.000000     -0.000000     -0.000000
    16   Atom        0.000000     -0.000000     -0.000000
    17   Atom       -0.000000      0.000000      0.000000
    18   Atom        0.000000     -0.000000      0.000000
    19   Atom        0.000000     -0.000000     -0.000000
    20   Atom       -0.000000      0.000000      0.000000
    21   Atom       -0.000000      0.000000     -0.000000
    22   Atom       -0.000000     -0.000000      0.000000
    23   Atom       -0.000000     -0.000000      0.000000
    24   Atom       -0.000000      0.000000     -0.000000
    25   Atom       -0.000000     -0.000000      0.000000
    26   Atom       -0.000000      0.000000     -0.000000
    27   Atom        0.000000     -0.000000      0.000000
    28   Atom       -0.000000     -0.000000      0.000000
    29   Atom        0.000000      0.000000     -0.000000
    30   Atom        0.000000     -0.000000     -0.000000
    31   Atom       -0.000000     -0.000000      0.000000
    32   Atom        0.000000     -0.000000     -0.000000
    33   Atom        0.000000     -0.000000     -0.000000
    34   Atom       -0.000000      0.000000     -0.000000
    35   Atom        0.000000     -0.000000      0.000000
    36   Atom        0.000000     -0.000000      0.000000
    37   Atom       -0.000000      0.000000     -0.000000
    38   Atom       -0.000000      0.000000      0.000000
    39   Atom        0.000000     -0.000000      0.000000
    40   Atom        0.000000      0.000000     -0.000000
    41   Atom        0.000000     -0.000000     -0.000000
    42   Atom        0.000000      0.000000     -0.000000
    43   Atom        0.000000     -0.000000      0.000000
    44   Atom        0.000000     -0.000000     -0.000000
    45   Atom       -0.000000      0.000000      0.000000
    46   Atom        0.000000     -0.000000      0.000000
    47   Atom       -0.000000      0.000000     -0.000000
    48   Atom       -0.000000      0.000000     -0.000000
    49   Atom        0.000000     -0.000000     -0.000000
    50   Atom        0.000000      0.000000     -0.000000
    51   Atom       -0.000000      0.000000     -0.000000
    52   Atom       -0.000000     -0.000000      0.000000
    53   Atom        0.000000     -0.000000      0.000000
    54   Atom        0.000000     -0.000000     -0.000000
    55   Atom       -0.000000     -0.000000      0.000000
    56   Atom        0.000000      0.000000     -0.000000
    57   Atom       -0.000000     -0.000000      0.000000
    58   Atom       -0.000000      0.000000     -0.000000
    59   Atom       -0.000000     -0.000000      0.000000
    60   Atom        0.000000     -0.000000     -0.000000
    61   Atom       -0.000000      0.000000     -0.000000
    62   Atom        0.000000     -0.000000     -0.000000
    63   Atom        0.000000     -0.000000     -0.000000
    64   Atom        0.000000     -0.000000      0.000000
    65   Atom       -0.000000     -0.000000      0.000000
    66   Atom        0.000000     -0.000000     -0.000000
    67   Atom       -0.000000      0.000000     -0.000000
    68   Atom        0.000000      0.000000     -0.000000
    69   Atom       -0.000000      0.000000     -0.000000
    70   Atom        0.000000      0.000000     -0.000000
    71   Atom        0.000000      0.000000     -0.000000
    72   Atom        0.000000      0.000000     -0.000000
    73   Atom        0.000000     -0.000000      0.000000
    74   Atom        0.000000     -0.000000     -0.000000
    75   Atom        0.000000     -0.000000      0.000000
    76   Atom       -0.000000     -0.000000      0.000000
    77   Atom        0.000000     -0.000000      0.000000
    78   Atom        0.000000     -0.000000      0.000000
    79   Atom        0.000000     -0.000000     -0.000000
    80   Atom       -0.000000     -0.000000      0.000000
 --------------------------------------------------------
                        XY            XZ            YZ
 --------------------------------------------------------
     1   Atom       -0.000000     -0.000000      0.000000
     2   Atom        0.000000     -0.000000      0.000000
     3   Atom       -0.000000     -0.000000      0.000000
     4   Atom        0.000000     -0.000000     -0.000000
     5   Atom       -0.000000     -0.000000      0.000000
     6   Atom       -0.000000     -0.000000     -0.000000
     7   Atom        0.000000      0.000000     -0.000000
     8   Atom        0.000000      0.000000     -0.000000
     9   Atom        0.000000      0.000000      0.000000
    10   Atom       -0.000000      0.000000     -0.000000
    11   Atom       -0.000000     -0.000000     -0.000000
    12   Atom       -0.000000     -0.000000     -0.000000
    13   Atom       -0.000000     -0.000000      0.000000
    14   Atom       -0.000000      0.000000     -0.000000
    15   Atom        0.000000      0.000000      0.000000
    16   Atom        0.000000     -0.000000     -0.000000
    17   Atom       -0.000000      0.000000     -0.000000
    18   Atom        0.000000      0.000000     -0.000000
    19   Atom        0.000000      0.000000      0.000000
    20   Atom       -0.000000      0.000000     -0.000000
    21   Atom        0.000000     -0.000000     -0.000000
    22   Atom       -0.000000      0.000000     -0.000000
    23   Atom        0.000000      0.000000      0.000000
    24   Atom       -0.000000     -0.000000     -0.000000
    25   Atom        0.000000      0.000000     -0.000000
    26   Atom       -0.000000     -0.000000      0.000000
    27   Atom        0.000000     -0.000000      0.000000
    28   Atom       -0.000000      0.000000     -0.000000
    29   Atom        0.000000     -0.000000     -0.000000
    30   Atom        0.000000     -0.000000     -0.000000
    31   Atom        0.000000      0.000000      0.000000
    32   Atom       -0.000000      0.000000      0.000000
    33   Atom       -0.000000      0.000000     -0.000000
    34   Atom       -0.000000      0.000000     -0.000000
    35   Atom       -0.000000     -0.000000      0.000000
    36   Atom       -0.000000      0.000000      0.000000
    37   Atom        0.000000     -0.000000      0.000000
    38   Atom       -0.000000     -0.000000     -0.000000
    39   Atom       -0.000000      0.000000      0.000000
    40   Atom        0.000000     -0.000000      0.000000
    41   Atom       -0.000000     -0.000000     -0.000000
    42   Atom       -0.000000     -0.000000     -0.000000
    43   Atom        0.000000      0.000000     -0.000000
    44   Atom       -0.000000     -0.000000     -0.000000
    45   Atom        0.000000     -0.000000      0.000000
    46   Atom        0.000000     -0.000000      0.000000
    47   Atom       -0.000000      0.000000     -0.000000
    48   Atom       -0.000000      0.000000      0.000000
    49   Atom        0.000000     -0.000000      0.000000
    50   Atom       -0.000000      0.000000      0.000000
    51   Atom        0.000000     -0.000000     -0.000000
    52   Atom        0.000000      0.000000      0.000000
    53   Atom       -0.000000     -0.000000     -0.000000
    54   Atom       -0.000000     -0.000000     -0.000000
    55   Atom        0.000000      0.000000      0.000000
    56   Atom        0.000000     -0.000000      0.000000
    57   Atom       -0.000000     -0.000000     -0.000000
    58   Atom       -0.000000     -0.000000     -0.000000
    59   Atom       -0.000000      0.000000      0.000000
    60   Atom       -0.000000      0.000000      0.000000
    61   Atom       -0.000000     -0.000000      0.000000
    62   Atom       -0.000000     -0.000000     -0.000000
    63   Atom        0.000000     -0.000000      0.000000
    64   Atom        0.000000     -0.000000     -0.000000
    65   Atom       -0.000000     -0.000000     -0.000000
    66   Atom        0.000000      0.000000      0.000000
    67   Atom       -0.000000      0.000000     -0.000000
    68   Atom       -0.000000      0.000000     -0.000000
    69   Atom       -0.000000      0.000000      0.000000
    70   Atom        0.000000     -0.000000      0.000000
    71   Atom        0.000000     -0.000000      0.000000
    72   Atom        0.000000     -0.000000     -0.000000
    73   Atom       -0.000000      0.000000      0.000000
    74   Atom        0.000000     -0.000000      0.000000
    75   Atom       -0.000000      0.000000     -0.000000
    76   Atom        0.000000     -0.000000     -0.000000
    77   Atom        0.000000     -0.000000      0.000000
    78   Atom       -0.000000     -0.000000     -0.000000
    79   Atom        0.000000      0.000000     -0.000000
    80   Atom        0.000000      0.000000     -0.000000
 --------------------------------------------------------


 ---------------------------------------------------------------------------------
              Anisotropic Spin Dipole Couplings in Principal Axis System
 ---------------------------------------------------------------------------------

       Atom             a.u.   MegaHertz   Gauss  10(-4) cm-1        Axes

              Baa    -0.0000    -0.000    -0.000    -0.000  0.2675 -0.5063  0.8198
     1 C(13)  Bbb     0.0000     0.000     0.000     0.000  0.7702  0.6237  0.1339
              Bcc     0.0000     0.000     0.000     0.000 -0.5791  0.5956  0.5568
 
              Baa    -0.0000    -0.000    -0.000    -0.000  0.7952 -0.1238  0.5935
     2 C(13)  Bbb     0.0000     0.000     0.000     0.000 -0.6009 -0.0302  0.7988
              Bcc     0.0000     0.000     0.000     0.000  0.0810  0.9918  0.0984
 
              Baa    -0.0000    -0.000    -0.000    -0.000  0.3323 -0.0770  0.9400
     3 C(13)  Bbb     0.0000     0.000     0.000     0.000  0.8883  0.3605 -0.2845
              Bcc     0.0000     0.000     0.000     0.000 -0.3169  0.9296  0.1882
 
              Baa    -0.0000    -0.000    -0.000    -0.000  0.4603  0.0334  0.8871
     4 C(13)  Bbb    -0.0000    -0.000    -0.000    -0.000 -0.1811  0.9818  0.0569
              Bcc     0.0000     0.000     0.000     0.000  0.8691  0.1868 -0.4580
 
              Baa    -0.0000    -0.000    -0.000    -0.000  0.5353  0.0069  0.8446
     5 C(13)  Bbb     0.0000     0.000     0.000     0.000  0.4735  0.8256 -0.3069
              Bcc     0.0000     0.000     0.000     0.000  0.6994 -0.5643 -0.4387
 
              Baa    -0.0000    -0.000    -0.000    -0.000  0.4215  0.5477  0.7228
     6 C(13)  Bbb     0.0000     0.000     0.000     0.000  0.0729  0.7739 -0.6290
              Bcc     0.0000     0.000     0.000     0.000  0.9039 -0.3178 -0.2862
 
              Baa    -0.0000    -0.000    -0.000    -0.000  0.7126 -0.3418 -0.6126
     7 C(13)  Bbb    -0.0000    -0.000    -0.000    -0.000  0.6979  0.2564  0.6687
              Bcc     0.0000     0.000     0.000     0.000  0.0715  0.9041 -0.4213
 
              Baa    -0.0000    -0.000    -0.000    -0.000 -0.1970  0.9701  0.1418
     8 C(13)  Bbb     0.0000     0.000     0.000     0.000  0.7003  0.2404 -0.6721
              Bcc     0.0000     0.000     0.000     0.000  0.6861  0.0331  0.7268
 
              Baa    -0.0000    -0.000    -0.000    -0.000  0.9589 -0.1131 -0.2603
     9 C(13)  Bbb    -0.0000    -0.000    -0.000    -0.000 -0.1059  0.7082 -0.6980
              Bcc     0.0000     0.000     0.000     0.000  0.2633  0.6968  0.6671
 
              Baa    -0.0000     0.000     0.000     0.000  0.5618  0.8255  0.0535
    10 O(17)  Bbb     0.0000    -0.000    -0.000    -0.000 -0.5154  0.2987  0.8032
              Bcc     0.0000    -0.000    -0.000    -0.000  0.6471 -0.4788  0.5933
 
              Baa    -0.0000    -0.000    -0.000    -0.000  0.4718  0.6125  0.6343
    11 N(14)  Bbb     0.0000     0.000     0.000     0.000 -0.5236 -0.3842  0.7604
              Bcc     0.0000     0.000     0.000     0.000  0.7094 -0.6909  0.1395
 
              Baa    -0.0000    -0.000    -0.000    -0.000  0.5815  0.7263  0.3664
    12 C(13)  Bbb     0.0000     0.000     0.000     0.000 -0.5841  0.0593  0.8095
              Bcc     0.0000     0.000     0.000     0.000 -0.5662  0.6848 -0.4588
 
              Baa    -0.0000    -0.000    -0.000    -0.000  0.2042  0.0599  0.9771
    13 C(13)  Bbb    -0.0000    -0.000    -0.000    -0.000  0.5111  0.8447 -0.1586
              Bcc     0.0000     0.000     0.000     0.000  0.8349 -0.5318 -0.1419
 
              Baa    -0.0000    -0.000    -0.000    -0.000  0.7355  0.5331 -0.4182
    14 C(13)  Bbb    -0.0000    -0.000    -0.000    -0.000 -0.0265  0.6393  0.7685
              Bcc     0.0000     0.000     0.000     0.000  0.6771 -0.5541  0.4843
 
              Baa    -0.0000    -0.000    -0.000    -0.000  0.0514  0.8798 -0.4726
    15 C(13)  Bbb    -0.0000    -0.000    -0.000    -0.000 -0.3219  0.4625  0.8261
              Bcc     0.0000     0.000     0.000     0.000  0.9454  0.1097  0.3069
 
              Baa    -0.0000    -0.000    -0.000    -0.000 -0.3129  0.8756  0.3680
    16 C(13)  Bbb    -0.0000    -0.000    -0.000    -0.000  0.4164 -0.2218  0.8817
              Bcc     0.0000     0.000     0.000     0.000  0.8536  0.4291 -0.2952
 
              Baa    -0.0000    -0.000    -0.000    -0.000  0.2264  0.6773  0.7000
    17 C(13)  Bbb    -0.0000    -0.000    -0.000    -0.000  0.9695 -0.0875 -0.2289
              Bcc     0.0000     0.000     0.000     0.000 -0.0939  0.7304 -0.6765
 
              Baa    -0.0000    -0.000    -0.000    -0.000 -0.2570  0.8005  0.5414
    18 C(13)  Bbb     0.0000     0.000     0.000     0.000  0.6602 -0.2637  0.7032
              Bcc     0.0000     0.000     0.000     0.000  0.7057  0.5382 -0.4608
 
              Baa    -0.0000    -0.000    -0.000    -0.000 -0.2575 -0.5074  0.8224
    19 C(13)  Bbb    -0.0000    -0.000    -0.000    -0.000 -0.2694  0.8550  0.4432
              Bcc     0.0000     0.000     0.000     0.000  0.9280  0.1074  0.3568
 
              Baa    -0.0000    -0.000    -0.000    -0.000  0.9500  0.0340 -0.3104
    20 C(13)  Bbb    -0.0000    -0.000    -0.000    -0.000  0.0605  0.9552  0.2898
              Bcc     0.0000     0.000     0.000     0.000  0.3063 -0.2941  0.9054
 
              Baa    -0.0000    -0.000    -0.000    -0.000  0.2582  0.2588  0.9308
    21 C(13)  Bbb    -0.0000    -0.000    -0.000    -0.000  0.9637 -0.1376 -0.2290
              Bcc     0.0000     0.000     0.000     0.000  0.0688  0.9561 -0.2849
 
              Baa    -0.0000    -0.000    -0.000    -0.000  0.8667  0.3147 -0.3871
    22 C(13)  Bbb    -0.0000    -0.000    -0.000    -0.000 -0.0901  0.8619  0.4990
              Bcc     0.0000     0.000     0.000     0.000  0.4907 -0.3977  0.7753
 
              Baa    -0.0000     0.000     0.000     0.000  0.7901 -0.6102  0.0580
    23 O(17)  Bbb    -0.0000     0.000     0.000     0.000  0.5659  0.6898 -0.4516
              Bcc     0.0000    -0.000    -0.000    -0.000  0.2356  0.3896  0.8903
 
              Baa    -0.0000    -0.000    -0.000    -0.000  0.8432  0.3952  0.3646
    24 N(14)  Bbb     0.0000     0.000     0.000     0.000 -0.4300  0.0886  0.8985
              Bcc     0.0000     0.000     0.000     0.000 -0.3228  0.9143 -0.2447
 
              Baa    -0.0000    -0.000    -0.000    -0.000 -0.3992  0.9097  0.1142
    25 C(13)  Bbb    -0.0000    -0.000    -0.000    -0.000  0.8921  0.4142 -0.1807
              Bcc     0.0000     0.000     0.000     0.000  0.2117 -0.0297  0.9769
 
              Baa    -0.0000    -0.000    -0.000    -0.000  0.9406  0.2108  0.2661
    26 C(13)  Bbb    -0.0000    -0.000    -0.000    -0.000 -0.2512 -0.0948  0.9633
              Bcc     0.0000     0.000     0.000     0.000 -0.2283  0.9729  0.0362
 
              Baa    -0.0000    -0.000    -0.000    -0.000 -0.2533  0.9550 -0.1544
    27 C(13)  Bbb     0.0000     0.000     0.000     0.000  0.7801  0.2960  0.5513
              Bcc     0.0000     0.000     0.000     0.000 -0.5721 -0.0192  0.8199
 
              Baa    -0.0000    -0.000    -0.000    -0.000  0.1163  0.9930  0.0205
    28 H(1)   Bbb    -0.0000    -0.000    -0.000    -0.000  0.9189 -0.0998 -0.3816
              Bcc     0.0000     0.000     0.000     0.000  0.3769 -0.0632  0.9241
 
              Baa    -0.0000    -0.000    -0.000    -0.000  0.5683 -0.0321  0.8222
    29 H(1)   Bbb     0.0000     0.000     0.000     0.000 -0.1660  0.9742  0.1527
              Bcc     0.0000     0.000     0.000     0.000  0.8059  0.2233 -0.5483
 
              Baa    -0.0000    -0.000    -0.000    -0.000  0.2724  0.6254  0.7312
    30 H(1)   Bbb     0.0000     0.000     0.000     0.000 -0.6097  0.7001 -0.3717
              Bcc     0.0000     0.000     0.000     0.000  0.7444  0.3446 -0.5720
 
              Baa    -0.0000    -0.000    -0.000    -0.000 -0.5364  0.8427  0.0472
[...]
 14,-0.00000079,0.00000096,-0.00000054,0.00000178,-0.00000840,0.0000045
 9,-0.00000771,-0.00000605,0.00000227,0.00000686,-0.00000080,-0.0000014
 0,-0.00000113,0.00000586,-0.00002746,-0.00001555,-0.00001300,-0.000030
 63,0.00000067,0.00002920,0.00003215,0.00001021,-0.00000819,-0.00001035
 ,-0.00000329,-0.00000058,0.00000203,-0.00000256,0.00000058,0.00000014,
 0.00000392,-0.00000302,0.00000194,-0.00000133,0.00000121,-0.00000045,0
 .00000066,-0.00000170,-0.00000144,0.00000036,-0.00000019,0.00000008,-0
 .00000103,-0.00000161,-0.00000020,-0.00000016,0.00000221,-0.00000046,-
 0.00000111,-0.00000333,-0.00000872,0.00000092,-0.00002070,-0.00000154,
 0.,-0.00001597,-0.00000660,0.00000549,0.00001715,0.00002318,0.00001154
 ,0.00000256,0.00000701,-0.00000237,0.00000426,0.00000263,0.00000573,-0
 .00000009,-0.00000114,0.00000022,-0.00000009,-0.00000129,0.00000105,-0
 .00000167,0.00000204,0.00000076,0.00000021,0.00000588,-0.00000720,-0.0
 0000760,0.00001134,0.00000438,0.00000010,0.00000021,-0.00000102,0.0000
 0070,-0.00000055,-0.00000044,0.00000012,-0.00000077,0.00000024,0.00000
 678,0.00000498,-0.00000914,0.00000314,-0.00000302,0.00000302,-0.000000
 22,0.00000077,-0.00000039,-0.00000113,0.00000010,-0.00000028,-0.000000
 50,-0.00000056,-0.00000022,-0.00000053,0.00000010,0.00000058,-0.000000
 87,-0.00000012,0.00000044,0.00000198,0.00000129,-0.00000107,-0.0000005
 8,-0.00000029,0.00000002,-0.00000026,-0.00000087,-0.00000017,-0.000000
 63,-0.00000041,-0.00000015,-0.00000030,-0.00000063,-0.00000036,0.00012
 738,0.00006313,-0.00006125,0.00067719,0.00037363,0.00008680,-0.0001250
 9,0.00002034,0.00002129,-0.00019808,-0.00019590,0.00020861,-0.00021879
 ,-0.00013975,-0.00017736,0.00835984,-0.00037525,-0.02363984,-0.0001783
 0,0.00052049,-0.00060696,-0.00017361,-0.00006538,-0.00005563,0.0000109
 8,-0.00006620,0.00003736,0.00015234,-0.00002999,-0.00000337,0.00012198
 ,-0.00025769,-0.00004301,-0.00001329,-0.00000072,0.00000351,-0.0000367
 6,-0.00003227,0.00002028,-0.00000180,0.00002639,0.00000475,0.00001337,
 -0.00001186,-0.00000046,0.00000080,-0.00000055,-0.00000379,0.00002008,
 -0.00000640,-0.00001401,0.00000094,0.00000156,0.00000075,-0.00000088,-
 0.00000034,0.00000085,-0.00000750,-0.00000662,0.00000250,-0.00000022,-
 0.00000017,-0.00000066,0.00000357,-0.00000197,-0.00000211,0.00000252,-
 0.00000108,0.00000079,0.00000055,0.00000065,0.00000030,-0.00000040,-0.
 00000014,0.00000017,-0.00000021,-0.00000184,0.00000003,-0.00251900,-0.
 00309127,-0.00270308,0.00211156,0.00052261,0.00055667,-0.00022514,-0.0
 0033235,-0.00031620,-0.07789188,-0.00304247,0.01184022,0.01081265,-0.0
 0584344,0.00774206,0.08945162,-0.00000073,-0.00000112,-0.00000123,0.00
 000023,0.00000106,0.00000102,-0.00000109,-0.00000521,-0.00000052,-0.00
 000342,0.00001066,0.00000655,-0.00000361,-0.00000046,0.00000038,0.0000
 0037,-0.00000064,0.00000279,-0.00000340,0.00000479,-0.00000835,-0.0000
 0343,0.00000292,0.00000725,-0.00000003,-0.00000156,-0.00000126,0.00000
 086,-0.00002679,-0.00001487,-0.00001936,-0.00003267,0.00000161,0.00003
 465,0.00003241,0.00000995,-0.00000885,-0.00000912,-0.00000230,-0.00000
 064,0.00000273,-0.00000118,0.00000080,0.00000080,0.00000700,-0.0000044
 9,0.00000101,0.00000107,0.00000128,0.00000107,0.00000020,-0.00000140,-
 0.00000063,0.00000023,-0.00000100,0.00000034,-0.00000110,-0.00000082,-
 0.00000067,-0.00000022,0.00000178,-0.00000283,-0.00000168,-0.00000256,
 -0.00001304,-0.00000144,-0.00002100,0.00000270,0.00000183,-0.00001415,
 -0.00000042,0.00000784,0.00001656,0.00001652,0.00000849,0.00000177,0.0
 0000714,-0.00000197,0.00000339,0.00000295,0.00000566,0.00000051,-0.000
 00131,-0.00000009,0.00000097,-0.00000039,0.00000036,0.00000084,0.00000
 318,-0.00000238,0.00000576,0.00000553,-0.00000909,-0.00000639,0.000013
 02,0.00000630,-0.00000010,0.00000027,-0.00000129,0.00000022,-0.0000002
 9,-0.00000073,-0.00000034,-0.00000108,-0.00000030,0.00000847,0.0000006
 9,-0.00001099,0.00000291,-0.00000459,0.00000006,-0.00000075,0.00000016
 ,-0.00000095,-0.00000047,-0.00000007,-0.00000036,-0.00000019,0.0000001
 3,-0.00000019,-0.00000067,0.00000032,0.00000011,-0.00000090,-0.0000000
 1,0.00000025,0.00000133,0.00000049,-0.00000016,-0.00000027,-0.00000025
 ,0.00000014,-0.00000057,-0.00000122,-0.00000026,-0.00000036,-0.0000001
 5,-0.00000008,-0.00000047,-0.00000092,-0.00000045,0.00014441,0.0000587
 0,-0.00007831,0.00076762,0.00041306,0.00007524,-0.00024646,-0.00000529
 ,0.00003015,-0.00021419,-0.00020501,0.00024615,-0.00025783,-0.00015979
 ,-0.00021171,0.00129635,0.00760964,-0.01704931,0.00015427,0.00135536,-
 0.00039243,-0.00012529,0.00008053,0.00001595,0.00005267,-0.00005815,-0
 .00000266,0.00007541,0.00001564,-0.00007987,-0.00000120,0.00002967,0.0
 0003996,-0.00001044,0.00000908,0.00000571,-0.00004068,-0.00003126,0.00
 002906,-0.00001252,-0.00000521,0.00000357,0.00000653,-0.00000109,0.000
 00069,0.00000174,-0.00000003,-0.00000742,0.00002752,-0.00000447,-0.000
 01497,-0.00000171,-0.00000064,-0.00000117,-0.00000064,0.00000162,0.000
 00117,-0.00000886,-0.00000888,0.00000602,0.00000060,-0.00000033,-0.000
 00218,0.00000540,-0.00000223,-0.00000311,0.00000062,0.00000011,0.00000
 054,-0.00000070,-0.00000020,-0.00000014,-0.00000024,0.00000051,0.00000
 020,0.00000025,-0.00000351,-0.00000013,-0.00298747,-0.00097238,-0.0018
 1150,-0.00078094,0.00005329,-0.00027980,-0.00034444,-0.00059937,-0.000
 91833,-0.00307025,-0.07598817,0.00249965,-0.00729833,-0.02662283,0.064
 16271,0.00346438,0.08445664,0.00000156,0.00000014,0.00000314,0.0000063
 0,-0.00000502,0.00001011,-0.00000591,-0.00001006,-0.00000976,0.0000000
 6,-0.00000688,0.00002153,-0.00002177,0.00001119,-0.00001193,0.00000318
 ,-0.00000141,0.00000616,-0.00001829,0.00002107,-0.00003873,-0.00000686
 ,0.00000949,0.00001517,-0.00000370,-0.00000160,-0.00000416,0.00000021,
 -0.00006996,-0.00003342,-0.00003484,-0.00009306,0.00003178,0.00008927,
 0.00008094,0.00001735,-0.00002015,-0.00001773,-0.00000587,-0.00000561,
 0.00000972,-0.00000171,-0.00000581,-0.00000131,0.00002592,-0.00000098,
 0.00001129,0.00000366,0.00000095,0.00000028,0.00000376,-0.00000243,-0.
 00000179,0.00000218,-0.00000125,-0.00000075,-0.00000165,-0.00000236,-0
 .00000100,-0.00000017,-0.00000063,-0.00000631,-0.00000698,-0.00001561,
 -0.00003864,-0.00002338,-0.00004856,0.00001040,0.00000987,-0.00002107,
 0.00000077,0.00005267,0.00003457,0.00003761,0.00001230,0.00000336,0.00
 001515,-0.00000262,0.00000782,0.00000523,0.00001522,0.00000115,-0.0000
 0083,0.00000084,0.00000117,-0.00000312,0.00000065,0.00000373,-0.000006
 03,0.00000774,-0.00002174,-0.00000166,-0.00003524,-0.00001727,0.000037
 28,0.00001639,0.00000164,0.00000223,0.00000015,0.00000171,0.00000086,0
 .00000235,0.00000194,-0.00000270,0.00000145,0.00002879,-0.00000268,-0.
 00003708,0.00000824,-0.00001402,-0.00000213,0.00000157,-0.00000111,-0.
 00000119,-0.00000031,-0.00000072,-0.00000115,0.00000053,0.00000021,0.0
 0000007,-0.00000273,0.00000002,0.00000005,-0.00000475,-0.00000113,0.00
 000075,0.00000057,-0.00000037,0.00000447,-0.00000008,0.00000076,0.0000
 0064,-0.00000054,-0.00000237,-0.00000085,-0.00000170,-0.00000140,-0.00
 000206,-0.00000306,-0.00000316,-0.00000227,0.00042423,0.00018623,-0.00
 033898,0.00236466,0.00137453,0.00003786,-0.00068818,-0.00011680,0.0001
 0662,-0.00082231,-0.00077040,0.00100108,-0.00076657,-0.00049612,-0.000
 61758,0.00464010,0.00070900,-0.04713849,0.00042454,0.00416189,-0.00087
 697,-0.00006328,-0.00047668,0.00044866,-0.00009086,-0.00000833,0.00010
 297,0.00021687,-0.00002982,-0.00030386,-0.00012066,0.00021671,0.000007
 30,0.00002272,-0.00006356,0.00004054,-0.00011768,-0.00012094,0.0001032
 7,-0.00002300,-0.00001985,0.00001624,0.00002834,0.00000281,-0.00000767
 ,0.00000389,0.00000452,-0.00000499,0.00007962,-0.00001396,-0.00006295,
 -0.00000150,0.00000024,-0.00000003,-0.00000119,-0.00000832,0.00001076,
 -0.00002841,-0.00003060,0.00001466,0.00000003,0.00000119,0.00000206,0.
 00001454,-0.00000683,-0.00001045,0.00000605,0.00000031,-0.00000099,-0.
 00000017,0.00000091,-0.00000048,-0.00000072,-0.00000252,0.00000398,-0.
 00000064,-0.00000871,0.00000026,-0.00643003,-0.00476204,-0.00309631,0.
 00081273,0.00039201,0.00082495,-0.00032880,-0.00141330,0.00036956,0.00
 250309,-0.00426023,-0.26588864,0.00687320,0.04741207,-0.03926367,-0.05
 659397,-0.03140591,0.39007316,0.00000096,-0.00000377,-0.00000283,0.000
 00787,-0.00000194,0.00000816,0.00000141,-0.00001789,-0.00000722,-0.000
 00132,0.00002231,0.00002287,-0.00001676,0.00000478,-0.00000936,0.00000
 425,-0.00000222,0.00000820,-0.00003454,0.00002069,-0.00003651,-0.00002
 376,0.00000896,0.00002987,-0.00000401,-0.00000519,-0.00000532,0.000020
 75,-0.00011425,-0.00006517,-0.00005409,-0.00013412,0.00001227,0.000127
 99,0.00013350,0.00004065,-0.00003244,-0.00003832,-0.00001149,-0.000004
 58,0.00001155,-0.00000822,-0.00000175,-0.00000153,0.00002741,-0.000010
 38,0.00000952,-0.00000233,0.00000454,-0.00000091,0.00000269,-0.0000062
 7,-0.00000513,0.00000149,-0.00000230,-0.00000036,-0.00000428,-0.000005
 35,-0.00000129,-0.00000042,0.00000530,-0.00000451,-0.00000543,-0.00001
 766,-0.00004589,-0.00000811,-0.00008200,0.00000102,0.00000344,-0.00005
 522,-0.00001682,0.00003970,0.00006438,0.00008433,0.00004107,0.00000870
 ,0.00002725,-0.00000816,0.00001576,0.00001014,0.00002293,0.00000022,-0
 .00000375,0.00000113,0.00000032,-0.00000411,0.00000296,-0.00000223,0.0
 0000330,0.00000383,-0.00001268,0.00001064,-0.00003629,-0.00003629,0.00
 005002,0.00001770,-0.00000010,0.00000079,-0.00000415,0.00000313,-0.000
 00264,-0.00000092,0.00000125,-0.00000339,0.00000090,0.00003488,0.00001
 038,-0.00004948,0.00001327,-0.00001583,0.00000756,-0.00000070,0.000002
 04,-0.00000155,-0.00000329,0.00000013,-0.00000099,-0.00000137,-0.00000
 122,-0.00000047,-0.00000254,0.00000049,0.00000133,-0.00000464,-0.00000
 067,0.00000135,0.00000519,0.00000298,-0.00000086,-0.00000187,-0.000000
 96,0.00000039,-0.00000141,-0.00000389,-0.00000084,-0.00000259,-0.00000
 168,-0.00000113,-0.00000219,-0.00000324,-0.00000206,0.00058528,0.00028
 411,-0.00035217,0.00227008,0.00227426,0.00024277,-0.00090959,-0.000839
 87,-0.00014317,-0.00089659,-0.00107932,0.00120311,-0.00100249,-0.00071
 710,-0.00090818,-0.04742013,0.01461170,0.00685728,-0.00019720,0.004592
 76,-0.00052731,-0.00103514,-0.00086925,-0.00000998,-0.00002205,-0.0000
 1469,-0.00003587,0.00050147,-0.00013768,-0.00021777,0.00081207,-0.0007
 5751,0.00001882,-0.00001146,0.00000634,0.00001825,-0.00011039,-0.00011
 427,0.00008248,-0.00000674,0.00010888,0.00002302,0.00005190,-0.0000729
 1,-0.00000273,0.00000055,-0.00000516,-0.00001704,0.00007229,-0.0000237
 9,-0.00005039,0.00000223,0.00000485,0.00000179,-0.00000192,-0.00000079
 ,0.00000235,-0.00002535,-0.00002304,0.00001020,-0.00000077,-0.00000066
 ,-0.00000312,0.00001244,-0.00000679,-0.00000737,0.00000779,-0.00000521
 ,0.00000278,0.00000147,0.00000188,0.00000093,-0.00000109,-0.00000014,0
 .00000026,-0.00000081,-0.00000626,0.00000027,0.00121739,0.00038121,0.0
 0029026,-0.00487933,-0.00561286,-0.00538247,0.00017753,-0.00037527,0.0
 0009641,-0.25393198,0.03480057,0.00797762,-0.01589891,0.04546718,-0.00
 212402,-0.03025483,0.00942323,0.04773304,0.35099843,-0.00000040,-0.000
 00056,0.00000029,-0.00000114,0.00000008,0.00000042,-0.00000416,-0.0000
 0238,-0.00000096,-0.00000387,0.00000022,0.00000618,-0.00000541,-0.0000
 0033,0.00000163,-0.00000082,0.00000125,0.00000255,0.00000366,0.0000023
 3,-0.00000682,0.00000114,0.00000270,0.00000392,0.00000076,-0.00000077,
 -0.00000085,-0.00000511,-0.00001102,-0.00000467,-0.00001385,-0.0000145
 3,0.00000247,0.00001785,0.00001368,0.00000364,-0.00000476,-0.00000339,
 -0.00000080,-0.00000062,0.00000195,-0.00000015,0.00000089,0.00000017,0
 .00000501,-0.00000258,0.00000024,0.00000139,0.00000073,0.00000092,0.00
 000010,-0.00000063,-0.00000001,0.00000012,-0.00000083,0.00000020,-0.00
 000054,-0.00000009,-0.00000040,-0.00000015,0.00000069,-0.00000239,-0.0
 0000113,-0.00000053,-0.00000666,-0.00000196,-0.00000904,0.00000322,0.0
 0000202,-0.00000498,0.00000229,0.00000337,0.00000661,0.00000272,0.0000
 0123,0.00000035,0.00000343,-0.00000065,0.00000101,0.00000155,0.0000027
 5,0.00000071,-0.00000077,-0.00000019,0.00000127,0.00000005,-0.00000022
 ,0.00000213,0.00000104,-0.00000226,0.00000343,-0.00000098,-0.00000642,
 0.00000735,0.00001033,0.00001000,0.00000014,0.00000032,-0.00000052,-0.
 00000027,0.00000051,-0.00000029,-0.00000059,-0.00000082,-0.00000038,0.
 00000497,-0.00000078,-0.00000648,0.00000146,-0.00000280,-0.00000071,-0
 .00000058,-0.00000016,-0.00000070,0.00000002,-0.00000015,-0.00000021,0
 .00000007,0.00000027,-0.00000007,-0.00000038,0.00000020,-0.00000011,-0
 .00000041,0.00000004,0.00000007,0.00000022,-0.00000004,0.00000035,0.00
 000012,-0.00000002,0.00000016,-0.00000041,-0.00000074,-0.00000014,0.00
 000002,0.00000009,-0.00000008,-0.00000036,-0.00000061,-0.00000029,0.00
 006438,0.00002072,-0.00003342,0.00013043,0.00032799,0.00005620,-0.0002
 0299,-0.00023009,-0.00006383,-0.00006972,-0.00005944,0.00008624,-0.000
 08254,-0.00005757,-0.00007801,-0.00955779,0.00997397,0.00100188,0.0009
 0307,0.00085944,0.00011505,0.00056869,-0.00153734,-0.00000742,-0.00013
 651,-0.00000661,-0.00015213,-0.00053661,0.00016340,-0.00037894,-0.0010
 5321,0.00092341,0.00018698,0.00002020,-0.00000735,0.00003557,-0.000076
 15,-0.00001489,0.00007882,-0.00002885,-0.00025835,0.00003089,0.0000048
 2,0.00003635,-0.00000410,0.00000706,0.00000016,-0.00001512,0.00005312,
 -0.00000728,-0.00003326,-0.00000261,-0.00000307,-0.00000172,-0.0000012
 4,0.00000043,0.00000331,-0.00001691,-0.00001823,0.00001354,0.00000148,
 -0.00000021,-0.00000332,0.00001109,-0.00000446,-0.00000699,0.00000125,
 0.00000211,-0.00000016,-0.00000173,-0.00000069,-0.00000042,-0.00000030
 ,0.00000021,0.00000107,0.00000026,-0.00000709,0.,-0.00022443,0.0000753
 5,-0.00035290,-0.00181039,-0.00066836,-0.00176864,-0.00000631,0.000045
 01,0.00003174,0.04279448,-0.08605766,-0.00550444,0.06202675,-0.0520520
 7,-0.00020920,0.00850111,0.01057958,-0.01040531,-0.10127371,0.11798313
 ,0.00000064,0.00000006,0.00000147,0.00000234,-0.00000192,0.00000324,-0
 .00000264,-0.00000327,-0.00000368,0.00000043,-0.00000129,0.00000722,-0
 .00000784,0.00000376,-0.00000343,0.00000085,-0.00000019,0.00000177,-0.
 00000487,0.00000713,-0.00001338,-0.00000113,0.00000346,0.00000409,-0.0
 0000112,-0.00000038,-0.00000133,-0.00000139,-0.00002053,-0.00000884,-0
 .00001089,-0.00002779,0.00001117,0.00002694,0.00002351,0.00000437,-0.0
 0000622,-0.00000510,-0.00000181,-0.00000193,0.00000316,-0.00000059,-0.
 00000150,-0.00000033,0.00000845,-0.00000036,0.00000343,0.00000135,0.00
 000022,0.00000015,0.00000127,-0.00000073,-0.00000047,0.00000077,-0.000
 00030,-0.00000025,-0.00000047,-0.00000071,-0.00000028,-0.00000007,-0.0
 0000015,-0.00000205,-0.00000240,-0.00000460,-0.00001146,-0.00000748,-0
 .00001460,0.00000346,0.00000338,-0.00000587,-0.00000004,0.00001694,0.0
 0001041,0.00001055,0.00000294,0.00000097,0.00000453,-0.00000069,0.0000
 0229,0.00000155,0.00000473,0.00000037,-0.00000022,0.00000024,0.0000003
 4,-0.00000123,0.00000031,0.00000095,-0.00000202,0.00000312,-0.00000685
 ,0.,-0.00001189,-0.00000231,0.00001187,0.00000640,0.00000079,0.0000009
 1,0.00000036,0.00000045,0.00000065,0.00000095,0.00000062,-0.00000087,0
 .00000057,0.00000893,-0.00000086,-0.00001172,0.00000243,-0.00000435,-0
 .00000089,0.00000054,-0.00000044,-0.00000046,-0.00000006,-0.00000027,-
 0.00000042,0.00000024,0.00000006,0.,-0.00000089,-0.00000001,0.00000004
 ,-0.00000149,-0.00000038,0.00000027,0.00000025,-0.00000014,0.00000145,
 0.00000007,0.00000035,0.00000019,-0.00000011,-0.00000068,-0.00000028,-
 0.00000051,-0.00000045,-0.00000071,-0.00000099,-0.00000100,-0.00000071
 ,0.00012687,0.00005690,-0.00010545,0.00052283,0.00049643,0.00000093,-0
 .00023847,-0.00019939,-0.00003067,-0.00020668,-0.00024227,0.00032618,-
 0.00022515,-0.00016548,-0.00020394,-0.01700212,0.00344595,0.00891073,-
 0.00039113,0.00066757,-0.00050129,0.00027592,-0.00067381,0.00022213,0.
 00001430,0.00006388,0.00000304,-0.00017997,0.00006663,-0.00019878,-0.0
 0028110,0.00021066,0.00011855,0.00000589,-0.00002192,0.00002492,-0.000
 04102,-0.00002060,0.00003389,-0.00001157,-0.00008401,0.00001725,0.0000
 0995,0.00001100,-0.00000497,0.00000373,0.00000339,0.00000027,0.0000277
 7,-0.00000270,-0.00002139,0.00000009,0.00000036,0.00000025,-0.00000097
 ,-0.00000388,0.00000487,-0.00000998,-0.00001046,0.00000516,0.00000020,
 0.00000074,0.00000144,0.00000520,-0.00000219,-0.00000381,0.00000262,0.
 00000051,-0.00000092,-0.00000008,0.00000036,-0.00000022,-0.00000035,-0
 .00000128,0.00000184,-0.00000020,-0.00000326,0.,0.00081166,0.00086300,
 0.00177956,-0.00270155,-0.00223280,-0.00081838,-0.00006411,-0.00023271
 ,0.00009977,0.01493047,-0.00668067,-0.07686963,-0.00425036,0.00219496,
 0.01215811,0.06369062,-0.01486344,-0.03559590,-0.05480433,0.01736813,0
 .09063065\\0.00000183,0.00000376,0.00000748,0.00000097,0.00000473,0.00
 000584,-0.00000002,0.00000648,0.00000366,0.00000009,0.00000316,0.00000
 274,0.00000083,0.00000187,0.00000346,0.00000146,0.00000126,0.00000608,
 0.00000125,0.00000003,0.00000190,0.00000155,-0.00000253,0.00000434,0.0
 0000187,-0.00000111,0.00000667,0.00000222,-0.00000194,0.00000472,0.000
 00102,-0.00000070,0.00000162,0.00000058,-0.00000241,0.00000224,0.00000
 094,-0.00000216,0.00000183,-0.00000111,-0.00000161,-0.00000496,-0.0000
 0240,-0.00000117,-0.00000678,-0.00000184,-0.00000298,-0.00000836,-0.00
 000189,-0.00000518,-0.00000819,-0.00000203,-0.00000417,-0.00000811,-0.
 00000155,-0.00000301,-0.00000587,-0.00000067,-0.00000234,-0.00000471,-
 0.00000057,-0.00000023,-0.00000302,-0.00000160,0.00000069,-0.00000378,
 0.00000049,-0.00000215,-0.00000060,-0.00000048,-0.00000024,-0.00000174
 ,-0.00000025,-0.00000063,0.00000026,0.00000141,-0.00000405,0.00000290,
 0.00000177,-0.00000210,0.00000394,0.00000226,0.00000359,0.00000899,0.0
 0000102,0.00000719,0.00000718,-0.00000024,0.00000730,0.00000317,-0.000
 00034,0.00000369,0.00000080,0.00000054,-0.00000149,0.00000190,0.000002
 24,-0.00000398,0.00000470,0.00000207,-0.00000121,0.00000698,0.00000293
 ,-0.00000079,0.00000793,-0.00000162,-0.00000022,-0.00000608,-0.0000024
 5,-0.00000334,-0.00000904,-0.00000223,-0.00000587,-0.00001023,-0.00000
 133,-0.00000591,-0.00000789,-0.00000032,-0.00000404,-0.00000386,-0.000
 00174,-0.00000187,-0.00000542,-0.00000115,0.00000102,-0.00000205,-0.00
 000151,0.00000177,-0.00000397,0.00000209,-0.00000533,0.00000367,0.0000
 0157,-0.00000509,0.00000166,0.00000195,-0.00000136,0.00000561,0.000001
 47,-0.00000112,0.00000343,-0.00000025,-0.00000014,-0.00000109,-0.00000
 090,-0.00000117,-0.00000244,-0.00000208,-0.00000089,-0.00000614,-0.000
 00142,0.00000108,-0.00000288,0.00000100,-0.00000423,-0.00000407,-0.000
 00228,0.00000128,-0.00000654,-0.00000327,0.00000152,-0.00000494,-0.000
 00049,0.00000198,-0.00000276,-0.00000059,-0.00000076,-0.00000230,-0.00
 000056,0.00000095,0.00000025,-0.00000155,0.00000214,-0.00000223,-0.000
 00012,0.00000342,0.00000027,0.00000026,0.00000052,0.00000167,-0.000000
 09,0.00000024,0.00000012,0.00000035,0.00000209,0.00000184,0.00000069,-
 0.00000074,0.00000176,0.00000112,0.00000148,0.00000407,0.00000156,-0.0
 0000019,0.00000423,0.00000091,0.00000282,0.00000457,0.00000135,0.00000
 092,0.00000590,0.00000202,-0.00000109,0.00000608,0.00000189,0.00000148
 ,0.00000785,0.00000204,0.00000182,0.00000625,0.00000397,-0.00000107,0.
 00000892,0.00000221,0.00000257,0.00000898,0.00000338,0.00000027,0.0000
 0952,-0.00000204,-0.00000017,-0.00000656,-0.00000237,0.00000114,-0.000
 00755,-0.00000141,0.00000338,-0.00000348,-0.00000328,0.00000392,-0.000
 00741,-0.00000352,0.00000219,-0.00000925,-0.00000317,0.00000542,-0.000
 00748,-0.00000241,0.00000364,-0.00000621\\\@
 The archive entry for this job was punched.


 In the race for quality, there is no finish line.
                               -- David T. Kearns
 Job cpu time:       2 days  4 hours  4 minutes 20.5 seconds.
 Elapsed time:       0 days  1 hours 52 minutes 36.2 seconds.
 File lengths (MBytes):  RWF=   9785 Int=      0 D2E=      0 Chk=    125 Scr=      1
 Normal termination of Gaussian 16 at Tue Feb 18 18:05:30 2025.
