 Entering Gaussian System, Link 0=g16
 Input=C4-2.gau
 Output=C4-2.log
 Initial command:
 /apps/gaussian/g16c01/g16/l1.exe "/jobfs/148117177.gadi-pbs/Gau-1659030.inp" -scrdir="/jobfs/148117177.gadi-pbs/"
 Default is to use a total of  30 processors:
                               30 via shared-memory
                                1 via Linda
 Entering Link 1 = /apps/gaussian/g16c01/g16/l1.exe PID=   1659031.
  
 Copyright (c) 1988-2019, Gaussian, Inc.  All Rights Reserved.
  
 This is part of the Gaussian(R) 16 program.  It is based on
 the Gaussian(R) 09 system (copyright 2009, Gaussian, Inc.),
 the Gaussian(R) 03 system (copyright 2003, Gaussian, Inc.),
 the Gaussian(R) 98 system (copyright 1998, Gaussian, Inc.),
 the Gaussian(R) 94 system (copyright 1995, Gaussian, Inc.),
 the Gaussian 92(TM) system (copyright 1992, Gaussian, Inc.),
 the Gaussian 90(TM) system (copyright 1990, Gaussian, Inc.),
 the Gaussian 88(TM) system (copyright 1988, Gaussian, Inc.),
 the Gaussian 86(TM) system (copyright 1986, Carnegie Mellon
 University), and the Gaussian 82(TM) system (copyright 1983,
 Carnegie Mellon University). Gaussian is a federally registered
 trademark of Gaussian, Inc.
  
 This software contains proprietary and confidential information,
 including trade secrets, belonging to Gaussian, Inc.
  
 This software is provided under written license and may be
 used, copied, transmitted, or stored only in accord with that
 written license.
  
 The following legend is applicable only to US Government
 contracts under FAR:
  
                    RESTRICTED RIGHTS LEGEND
  
 Use, reproduction and disclosure by the US Government is
 subject to restrictions as set forth in subparagraphs (a)
 and (c) of the Commercial Computer Software - Restricted
 Rights clause in FAR 52.227-19.
  
 Gaussian, Inc.
 340 Quinnipiac St., Bldg. 40, Wallingford CT 06492
  
  
 ---------------------------------------------------------------
 Warning -- This program may not be used in any manner that
 competes with the business of Gaussian, Inc. or will provide
 assistance to any competitor of Gaussian, Inc.  The licensee
 of this program is prohibited from giving any competitor of
 Gaussian, Inc. access to this program.  By using this program,
 the user acknowledges that Gaussian, Inc. is engaged in the
 business of creating and licensing software in the field of
 computational chemistry and represents and warrants to the
 licensee that it is not a competitor of Gaussian, Inc. and that
 it will not use this program in any manner prohibited above.
 ---------------------------------------------------------------
  

 Cite this work as:
 Gaussian 16, Revision C.01,
 M. J. Frisch, G. W. Trucks, H. B. Schlegel, G. E. Scuseria, 
 M. A. Robb, J. R. Cheeseman, G. Scalmani, V. Barone, 
 G. A. Petersson, H. Nakatsuji, X. Li, M. Caricato, A. V. Marenich, 
 J. Bloino, B. G. Janesko, R. Gomperts, B. Mennucci, H. P. Hratchian, 
 J. V. Ortiz, A. F. Izmaylov, J. L. Sonnenberg, D. Williams-Young, 
 F. Ding, F. Lipparini, F. Egidi, J. Goings, B. Peng, A. Petrone, 
 T. Henderson, D. Ranasinghe, V. G. Zakrzewski, J. Gao, N. Rega, 
 G. Zheng, W. Liang, M. Hada, M. Ehara, K. Toyota, R. Fukuda, 
 J. Hasegawa, M. Ishida, T. Nakajima, Y. Honda, O. Kitao, H. Nakai, 
 T. Vreven, K. Throssell, J. A. Montgomery, Jr., J. E. Peralta, 
 F. Ogliaro, M. J. Bearpark, J. J. Heyd, E. N. Brothers, K. N. Kudin, 
 V. N. Staroverov, T. A. Keith, R. Kobayashi, J. Normand, 
 K. Raghavachari, A. P. Rendell, J. C. Burant, S. S. Iyengar, 
 J. Tomasi, M. Cossi, J. M. Millam, M. Klene, C. Adamo, R. Cammi, 
 J. W. Ochterski, R. L. Martin, K. Morokuma, O. Farkas, 
 J. B. Foresman, and D. J. Fox, Gaussian, Inc., Wallingford CT, 2019.
 
 ******************************************
 Gaussian 16:  ES64L-G16RevC.01  3-Jul-2019
                28-Aug-2025 
 ******************************************
 %chk=C4-2.chk
 Default route: Maxdisk=0MB
 ----------------------------------------------------------------------
 # opt(maxcycles=500,maxstep=5) freq scf(maxcycle=500) Int(SuperFine) u
 wb97xd/Def2SVPP scrf=(smd,solvent=Acetonitrile)
 ----------------------------------------------------------------------
 1/6=500,8=5,18=20,19=15,26=6,38=1/1,3;
 2/9=110,12=2,17=6,18=5,40=1/2;
 3/5=43,7=202,11=2,25=1,30=1,70=32201,71=1,72=2,74=-58,75=-7,116=2/1,2,3;
 4//1;
 5/5=2,7=500,38=5,53=2/2;
 6/7=2,8=2,9=2,10=2,28=1/1;
 7//1,2,3,16;
 1/6=500,8=5,18=20,19=15,26=6/3(2);
 2/9=110/2;
 99//99;
 2/9=110/2;
 3/5=43,7=202,11=2,25=1,30=1,70=32205,71=1,72=2,74=-58,75=-7,116=2/1,2,3;
 4/5=5,16=3,69=1/1;
 5/5=2,7=500,38=5,53=2/2;
 7//1,2,3,16;
 1/6=500,8=5,18=20,19=15,26=6/3(-5);
 2/9=110/2;
 6/7=2,8=2,9=2,10=2,19=2,28=1/1;
 99/9=1/99;
 ----------
 OPT + Freq
 ----------
 Symbolic Z-matrix:
 Charge =  2 Multiplicity = 2
 Ir                   -0.72273  -0.0128   -0.00755 
 S                    -1.63486   2.7133   -3.4943 
 S                    -1.82931  -2.68028   3.46516 
 N                    -0.79116   0.8844   -1.90425 
 N                     1.0608    1.30376   0.22327 
 N                    -0.87827  -0.89425   1.88569 
 N                     1.06404  -1.33823  -0.17694 
 C                     2.27244   0.7207    0.11729 
 C                    -1.6118    1.91476  -1.96563 
 C                     0.98823   2.62862   0.37939 
 H                    -0.01002   3.06343   0.46524 
 C                     2.27378  -0.75397  -0.05791 
 C                    -2.07523   1.41575   0.34091 
 C                    -2.12416  -1.38803  -0.38319 
 C                    -2.3546    2.25984  -0.77487 
 C                     0.99178  -2.66294  -0.32939 
 H                    -0.00657  -3.09578  -0.42471 
 C                    -0.23259  -0.67177   3.09201 
 C                     3.43775  -1.50958  -0.10708 
 H                     4.40284  -1.01274  -0.01 
 C                     2.11354   3.43772   0.44707 
 H                     1.96581   4.50927   0.58035 
 C                     3.43567   1.47691   0.17865 
 H                     4.40182   0.9806    0.09004 
 C                     0.78358  -0.38673  -3.36827 
 H                     1.03034  -1.12446  -2.60526 
 C                    -2.74377  -1.61846  -1.61023 
 H                    -2.51392  -1.01446  -2.49123 
 C                    -2.46255  -2.21874   0.72717 
 C                     3.38912  -2.90015  -0.27758 
 C                    -2.71489   1.66586   1.55225 
 H                    -2.52916   1.05277   2.43726 
 C                    -0.12181   0.64597  -3.09399 
 C                     3.38505   2.86787   0.34876 
 C                    -0.45914   1.5715   -4.09851 
 C                    -1.7374   -1.89407   1.93319 
 C                     2.11845  -3.47155  -0.3848 
 H                     1.97306  -4.54348  -0.51756 
 C                     0.7013    0.32967   3.38565 
 H                     0.99512   1.05316   2.62603 
 C                     1.22929   0.38363   4.66677 
 H                     1.9597    1.15954   4.9103 
 C                    -0.62942  -1.57757   4.09276 
 C                    -3.62798   2.72211   1.66686 
 C                    -3.68885  -2.64316  -1.74511 
 C                    -3.26948   3.30429  -0.65709 
 H                    -3.49995   3.95275  -1.50769 
 C                     1.344    -0.45203  -4.63509 
 H                     2.05305  -1.25178  -4.86433 
 C                    -3.40894  -3.23168   0.58915 
 H                    -3.68238  -3.87024   1.43451 
 C                    -0.09933  -1.52347   5.38361 
 H                    -0.41302  -2.23206   6.154 
 C                    -3.90527   3.53884   0.55727 
 H                    -4.61479   4.36522   0.63209 
 C                     0.10332   1.50533  -5.37502 
 H                    -0.16364   2.22854  -6.14935 
 C                     0.83804  -0.53524   5.6565 
 H                     1.27068  -0.46846   6.65821 
 O                    -4.22456  -2.78909  -2.9469 
 C                     1.01222   0.48584  -5.62879 
 H                     1.46923   0.40926  -6.61891 
 C                     4.67871   3.67891   0.41674 
 C                     4.6851   -3.7082   -0.33868 
 C                    -4.02099  -3.44714  -0.64061 
 H                    -4.75601  -4.24929  -0.73156 
 C                     5.45557   3.48353  -0.899 
 H                     4.86044   3.82584  -1.76413 
 H                     5.72929   2.42737  -1.06474 
 H                     6.38946   4.07201  -0.87049 
 O                    -4.18771   2.88159   2.85633 
 C                     4.40695   5.17526   0.61196 
 H                     5.3667    5.718     0.65732 
 H                     3.86539   5.375     1.55299 
 H                     3.82311   5.59908  -0.22371 
 C                     5.53082  -3.19751  -1.52089 
 H                     6.4668   -3.77959  -1.58717 
 H                     5.80447  -2.13461  -1.4054 
 H                     4.98689  -3.31253  -2.47526 
 C                     5.52166   3.16943   1.60123 
 H                     5.79878   2.10745   1.48565 
 H                     4.97409   3.28205   2.5538 
 H                     6.45574   3.75413   1.67131 
 C                     4.41823  -5.20542  -0.53331 
 H                     3.8816   -5.40771  -1.47661 
 H                     3.83167  -5.62969   0.3002 
 H                     5.37967  -5.74558  -0.57367 
 C                     5.45715  -3.50913   0.97931 
 H                     6.39261  -4.09527   0.95442 
 H                     4.86022  -3.85179   1.84305 
 H                     5.72798  -2.45215   1.14461 
 C                    -5.19449  -3.79512  -3.15749 
 H                    -5.48872  -3.71558  -4.2135 
 H                    -6.0817   -3.63559  -2.51928 
 H                    -4.776    -4.80018  -2.9711 
 C                    -5.13149   3.91592   3.04717 
 H                    -5.45375   3.84207   4.0954 
 H                    -6.00727   3.78545   2.38696 
 H                    -4.67833   4.90838   2.87494 
 

 GradGradGradGradGradGradGradGradGradGradGradGradGradGradGradGradGradGrad
 Berny optimization.
 Initialization pass.
                           ----------------------------
                           !    Initial Parameters    !
                           ! (Angstroms and Degrees)  !
 --------------------------                            --------------------------
 ! Name  Definition              Value          Derivative Info.                !
 --------------------------------------------------------------------------------
 ! R1    R(1,4)                  2.0993         estimate D2E/DX2                !
 ! R2    R(1,5)                  2.2288         estimate D2E/DX2                !
 ! R3    R(1,6)                  2.0942         estimate D2E/DX2                !
 ! R4    R(1,7)                  2.2311         estimate D2E/DX2                !
 ! R5    R(1,13)                 1.9979         estimate D2E/DX2                !
 ! R6    R(1,14)                 1.9991         estimate D2E/DX2                !
 ! R7    R(2,9)                  1.7248         estimate D2E/DX2                !
 ! R8    R(2,35)                 1.7467         estimate D2E/DX2                !
 ! R9    R(3,36)                 1.7244         estimate D2E/DX2                !
 ! R10   R(3,43)                 1.7463         estimate D2E/DX2                !
 ! R11   R(4,9)                  1.3187         estimate D2E/DX2                !
 ! R12   R(4,33)                 1.3858         estimate D2E/DX2                !
 ! R13   R(5,8)                  1.3488         estimate D2E/DX2                !
 ! R14   R(5,10)                 1.336          estimate D2E/DX2                !
 ! R15   R(6,18)                 1.3862         estimate D2E/DX2                !
 ! R16   R(6,36)                 1.3191         estimate D2E/DX2                !
 ! R17   R(7,12)                 1.3487         estimate D2E/DX2                !
 ! R18   R(7,16)                 1.3354         estimate D2E/DX2                !
 ! R19   R(8,12)                 1.485          estimate D2E/DX2                !
 ! R20   R(8,23)                 1.3888         estimate D2E/DX2                !
 ! R21   R(9,15)                 1.4452         estimate D2E/DX2                !
 ! R22   R(10,11)                1.0922         estimate D2E/DX2                !
 ! R23   R(10,21)                1.3876         estimate D2E/DX2                !
 ! R24   R(12,19)                1.3886         estimate D2E/DX2                !
 ! R25   R(13,15)                1.4267         estimate D2E/DX2                !
 ! R26   R(13,31)                1.3925         estimate D2E/DX2                !
 ! R27   R(14,27)                1.3938         estimate D2E/DX2                !
 ! R28   R(14,29)                1.4274         estimate D2E/DX2                !
 ! R29   R(15,46)                1.3935         estimate D2E/DX2                !
 ! R30   R(16,17)                1.0923         estimate D2E/DX2                !
 ! R31   R(16,37)                1.3879         estimate D2E/DX2                !
 ! R32   R(18,39)                1.4004         estimate D2E/DX2                !
 ! R33   R(18,43)                1.4069         estimate D2E/DX2                !
 ! R34   R(19,20)                1.0898         estimate D2E/DX2                !
 ! R35   R(19,30)                1.4018         estimate D2E/DX2                !
 ! R36   R(21,22)                1.0899         estimate D2E/DX2                !
 ! R37   R(21,34)                1.3968         estimate D2E/DX2                !
 ! R38   R(23,24)                1.0898         estimate D2E/DX2                !
 ! R39   R(23,34)                1.4022         estimate D2E/DX2                !
 ! R40   R(25,26)                1.0896         estimate D2E/DX2                !
 ! R41   R(25,33)                1.4005         estimate D2E/DX2                !
 ! R42   R(25,48)                1.3868         estimate D2E/DX2                !
 ! R43   R(27,28)                1.0926         estimate D2E/DX2                !
 ! R44   R(27,45)                1.4005         estimate D2E/DX2                !
 ! R45   R(29,36)                1.4442         estimate D2E/DX2                !
 ! R46   R(29,50)                1.3931         estimate D2E/DX2                !
 ! R47   R(30,37)                1.3974         estimate D2E/DX2                !
 ! R48   R(30,64)                1.5285         estimate D2E/DX2                !
 ! R49   R(31,32)                1.0925         estimate D2E/DX2                !
 ! R50   R(31,44)                1.4009         estimate D2E/DX2                !
 ! R51   R(33,35)                1.4069         estimate D2E/DX2                !
 ! R52   R(34,63)                1.5284         estimate D2E/DX2                !
 ! R53   R(35,56)                1.3965         estimate D2E/DX2                !
 ! R54   R(37,38)                1.0899         estimate D2E/DX2                !
 ! R55   R(39,40)                1.0894         estimate D2E/DX2                !
 ! R56   R(39,41)                1.3867         estimate D2E/DX2                !
 ! R57   R(41,42)                1.0931         estimate D2E/DX2                !
 ! R58   R(41,58)                1.406          estimate D2E/DX2                !
 ! R59   R(43,52)                1.3965         estimate D2E/DX2                !
 ! R60   R(44,54)                1.4054         estimate D2E/DX2                !
 ! R61   R(44,71)                1.3242         estimate D2E/DX2                !
 ! R62   R(45,60)                1.3238         estimate D2E/DX2                !
 ! R63   R(45,65)                1.4059         estimate D2E/DX2                !
 ! R64   R(46,47)                1.0941         estimate D2E/DX2                !
 ! R65   R(46,54)                1.3907         estimate D2E/DX2                !
 ! R66   R(48,49)                1.0931         estimate D2E/DX2                !
 ! R67   R(48,61)                1.4061         estimate D2E/DX2                !
 ! R68   R(50,51)                1.0941         estimate D2E/DX2                !
 ! R69   R(50,65)                1.3904         estimate D2E/DX2                !
 ! R70   R(52,53)                1.0927         estimate D2E/DX2                !
 ! R71   R(52,58)                1.3891         estimate D2E/DX2                !
 ! R72   R(54,55)                1.0917         estimate D2E/DX2                !
 ! R73   R(56,57)                1.0927         estimate D2E/DX2                !
 ! R74   R(56,61)                1.3892         estimate D2E/DX2                !
 ! R75   R(58,59)                1.0932         estimate D2E/DX2                !
 ! R76   R(60,92)                1.4132         estimate D2E/DX2                !
 ! R77   R(61,62)                1.0932         estimate D2E/DX2                !
 ! R78   R(63,67)                1.5404         estimate D2E/DX2                !
 ! R79   R(63,72)                1.5333         estimate D2E/DX2                !
 ! R80   R(63,80)                1.5405         estimate D2E/DX2                !
 ! R81   R(64,76)                1.5407         estimate D2E/DX2                !
 ! R82   R(64,84)                1.5332         estimate D2E/DX2                !
 ! R83   R(64,88)                1.5404         estimate D2E/DX2                !
 ! R84   R(65,66)                1.0918         estimate D2E/DX2                !
 ! R85   R(67,68)                1.1045         estimate D2E/DX2                !
 ! R86   R(67,69)                1.1036         estimate D2E/DX2                !
 ! R87   R(67,70)                1.1042         estimate D2E/DX2                !
 ! R88   R(71,96)                1.4131         estimate D2E/DX2                !
 ! R89   R(72,73)                1.1035         estimate D2E/DX2                !
 ! R90   R(72,74)                1.104          estimate D2E/DX2                !
 ! R91   R(72,75)                1.104          estimate D2E/DX2                !
 ! R92   R(76,77)                1.1042         estimate D2E/DX2                !
 ! R93   R(76,78)                1.1036         estimate D2E/DX2                !
 ! R94   R(76,79)                1.1045         estimate D2E/DX2                !
 ! R95   R(80,81)                1.1036         estimate D2E/DX2                !
 ! R96   R(80,82)                1.1045         estimate D2E/DX2                !
 ! R97   R(80,83)                1.1042         estimate D2E/DX2                !
 ! R98   R(84,85)                1.104          estimate D2E/DX2                !
 ! R99   R(84,86)                1.104          estimate D2E/DX2                !
 ! R100  R(84,87)                1.1035         estimate D2E/DX2                !
 ! R101  R(88,89)                1.1042         estimate D2E/DX2                !
 ! R102  R(88,90)                1.1044         estimate D2E/DX2                !
 ! R103  R(88,91)                1.1036         estimate D2E/DX2                !
 ! R104  R(92,93)                1.0991         estimate D2E/DX2                !
 ! R105  R(92,94)                1.1045         estimate D2E/DX2                !
 ! R106  R(92,95)                1.1045         estimate D2E/DX2                !
 ! R107  R(96,97)                1.0991         estimate D2E/DX2                !
 ! R108  R(96,98)                1.1045         estimate D2E/DX2                !
 ! R109  R(96,99)                1.1045         estimate D2E/DX2                !
 ! A1    A(4,1,5)               82.3685         estimate D2E/DX2                !
 ! A2    A(4,1,7)              102.2045         estimate D2E/DX2                !
 ! A3    A(4,1,13)              80.2075         estimate D2E/DX2                !
 ! A4    A(4,1,14)              95.8186         estimate D2E/DX2                !
 ! A5    A(5,1,6)              102.3829         estimate D2E/DX2                !
 ! A6    A(5,1,7)               73.6167         estimate D2E/DX2                !
 ! A7    A(5,1,13)              95.8134         estimate D2E/DX2                !
 ! A8    A(6,1,7)               82.9967         estimate D2E/DX2                !
 ! A9    A(6,1,13)              95.3363         estimate D2E/DX2                !
 ! A10   A(6,1,14)              80.1107         estimate D2E/DX2                !
 ! A11   A(7,1,14)              97.9596         estimate D2E/DX2                !
 ! A12   A(13,1,14)             92.8707         estimate D2E/DX2                !
 ! A13   A(9,2,35)              89.7103         estimate D2E/DX2                !
 ! A14   A(36,3,43)             89.6998         estimate D2E/DX2                !
 ! A15   A(1,4,9)              113.3459         estimate D2E/DX2                !
 ! A16   A(1,4,33)             133.3457         estimate D2E/DX2                !
 ! A17   A(9,4,33)             113.2707         estimate D2E/DX2                !
 ! A18   A(1,5,8)              117.0877         estimate D2E/DX2                !
 ! A19   A(1,5,10)             123.6698         estimate D2E/DX2                !
 ! A20   A(8,5,10)             119.1214         estimate D2E/DX2                !
 ! A21   A(1,6,18)             133.2025         estimate D2E/DX2                !
 ! A22   A(1,6,36)             113.5756         estimate D2E/DX2                !
 ! A23   A(18,6,36)            113.1841         estimate D2E/DX2                !
 ! A24   A(1,7,12)             117.0178         estimate D2E/DX2                !
 ! A25   A(1,7,16)             123.6858         estimate D2E/DX2                !
 ! A26   A(12,7,16)            119.2315         estimate D2E/DX2                !
 ! A27   A(5,8,12)             116.0619         estimate D2E/DX2                !
 ! A28   A(5,8,23)             120.9011         estimate D2E/DX2                !
 ! A29   A(12,8,23)            123.0361         estimate D2E/DX2                !
 ! A30   A(2,9,4)              114.2879         estimate D2E/DX2                !
 ! A31   A(2,9,15)             127.7924         estimate D2E/DX2                !
 ! A32   A(4,9,15)             117.9089         estimate D2E/DX2                !
 ! A33   A(5,10,11)            116.976          estimate D2E/DX2                !
 ! A34   A(5,10,21)            122.6736         estimate D2E/DX2                !
 ! A35   A(11,10,21)           120.3469         estimate D2E/DX2                !
 ! A36   A(7,12,8)             116.0899         estimate D2E/DX2                !
 ! A37   A(7,12,19)            120.8647         estimate D2E/DX2                !
 ! A38   A(8,12,19)            123.0444         estimate D2E/DX2                !
 ! A39   A(1,13,15)            114.7842         estimate D2E/DX2                !
 ! A40   A(1,13,31)            126.2371         estimate D2E/DX2                !
 ! A41   A(15,13,31)           118.9538         estimate D2E/DX2                !
 ! A42   A(1,14,27)            126.2145         estimate D2E/DX2                !
 ! A43   A(1,14,29)            114.8584         estimate D2E/DX2                !
 ! A44   A(27,14,29)           118.8954         estimate D2E/DX2                !
 ! A45   A(9,15,13)            113.7315         estimate D2E/DX2                !
 ! A46   A(9,15,46)            125.8766         estimate D2E/DX2                !
 ! A47   A(13,15,46)           120.3919         estimate D2E/DX2                !
 ! A48   A(7,16,17)            116.9042         estimate D2E/DX2                !
 ! A49   A(7,16,37)            122.5866         estimate D2E/DX2                !
 ! A50   A(17,16,37)           120.5039         estimate D2E/DX2                !
 ! A51   A(6,18,39)            127.4336         estimate D2E/DX2                !
 ! A52   A(6,18,43)            112.5993         estimate D2E/DX2                !
 ! A53   A(39,18,43)           119.9555         estimate D2E/DX2                !
 ! A54   A(12,19,20)           119.4111         estimate D2E/DX2                !
 ! A55   A(12,19,30)           120.9982         estimate D2E/DX2                !
 ! A56   A(20,19,30)           119.5906         estimate D2E/DX2                !
 ! A57   A(10,21,22)           117.9896         estimate D2E/DX2                !
 ! A58   A(10,21,34)           119.795          estimate D2E/DX2                !
 ! A59   A(22,21,34)           122.215          estimate D2E/DX2                !
 ! A60   A(8,23,24)            119.4059         estimate D2E/DX2                !
 ! A61   A(8,23,34)            121.015          estimate D2E/DX2                !
 ! A62   A(24,23,34)           119.5789         estimate D2E/DX2                !
 ! A63   A(26,25,33)           120.5632         estimate D2E/DX2                !
 ! A64   A(26,25,48)           121.0825         estimate D2E/DX2                !
 ! A65   A(33,25,48)           118.3512         estimate D2E/DX2                !
 ! A66   A(14,27,28)           121.6639         estimate D2E/DX2                !
 ! A67   A(14,27,45)           120.3814         estimate D2E/DX2                !
 ! A68   A(28,27,45)           117.9547         estimate D2E/DX2                !
 ! A69   A(14,29,36)           113.5606         estimate D2E/DX2                !
 ! A70   A(14,29,50)           120.4732         estimate D2E/DX2                !
 ! A71   A(36,29,50)           125.9658         estimate D2E/DX2                !
 ! A72   A(19,30,37)           116.5204         estimate D2E/DX2                !
 ! A73   A(19,30,64)           119.991          estimate D2E/DX2                !
 ! A74   A(37,30,64)           123.4885         estimate D2E/DX2                !
 ! A75   A(13,31,32)           121.7213         estimate D2E/DX2                !
 ! A76   A(13,31,44)           120.3978         estimate D2E/DX2                !
 ! A77   A(32,31,44)           117.8807         estimate D2E/DX2                !
 ! A78   A(4,33,25)            127.3924         estimate D2E/DX2                !
 ! A79   A(4,33,35)            112.5807         estimate D2E/DX2                !
 ! A80   A(25,33,35)           120.0158         estimate D2E/DX2                !
 ! A81   A(21,34,23)           116.4919         estimate D2E/DX2                !
 ! A82   A(21,34,63)           123.4266         estimate D2E/DX2                !
 ! A83   A(23,34,63)           120.0815         estimate D2E/DX2                !
 ! A84   A(2,35,33)            110.1463         estimate D2E/DX2                !
 ! A85   A(2,35,56)            128.1895         estimate D2E/DX2                !
 ! A86   A(33,35,56)           121.6608         estimate D2E/DX2                !
 ! A87   A(3,36,6)             114.3485         estimate D2E/DX2                !
 ! A88   A(3,36,29)            127.7795         estimate D2E/DX2                !
 ! A89   A(6,36,29)            117.8631         estimate D2E/DX2                !
 ! A90   A(16,37,30)           119.7934         estimate D2E/DX2                !
 ! A91   A(16,37,38)           118.008          estimate D2E/DX2                !
 ! A92   A(30,37,38)           122.1978         estimate D2E/DX2                !
 ! A93   A(18,39,40)           120.5678         estimate D2E/DX2                !
 ! A94   A(18,39,41)           118.3879         estimate D2E/DX2                !
 ! A95   A(40,39,41)           121.0413         estimate D2E/DX2                !
 ! A96   A(39,41,42)           119.2009         estimate D2E/DX2                !
 ! A97   A(39,41,58)           121.2612         estimate D2E/DX2                !
 ! A98   A(42,41,58)           119.5373         estimate D2E/DX2                !
 ! A99   A(3,43,18)            110.1635         estimate D2E/DX2                !
 ! A100  A(3,43,52)            128.1322         estimate D2E/DX2                !
 ! A101  A(18,43,52)           121.7007         estimate D2E/DX2                !
 ! A102  A(31,44,54)           120.1437         estimate D2E/DX2                !
 ! A103  A(31,44,71)           116.091          estimate D2E/DX2                !
 ! A104  A(54,44,71)           123.7652         estimate D2E/DX2                !
 ! A105  A(27,45,60)           116.1781         estimate D2E/DX2                !
 ! A106  A(27,45,65)           120.1432         estimate D2E/DX2                !
 ! A107  A(60,45,65)           123.6787         estimate D2E/DX2                !
 ! A108  A(15,46,47)           121.1188         estimate D2E/DX2                !
 ! A109  A(15,46,54)           120.0263         estimate D2E/DX2                !
 ! A110  A(47,46,54)           118.8548         estimate D2E/DX2                !
 ! A111  A(25,48,49)           119.2189         estimate D2E/DX2                !
 ! A112  A(25,48,61)           121.2525         estimate D2E/DX2                !
 ! A113  A(49,48,61)           119.5278         estimate D2E/DX2                !
 ! A114  A(29,50,51)           121.1699         estimate D2E/DX2                !
 ! A115  A(29,50,65)           119.956          estimate D2E/DX2                !
 ! A116  A(51,50,65)           118.8739         estimate D2E/DX2                !
 ! A117  A(43,52,53)           121.1711         estimate D2E/DX2                !
 ! A118  A(43,52,58)           117.7287         estimate D2E/DX2                !
 ! A119  A(53,52,58)           121.0999         estimate D2E/DX2                !
 ! A120  A(44,54,46)           120.0799         estimate D2E/DX2                !
 ! A121  A(44,54,55)           120.9307         estimate D2E/DX2                !
 ! A122  A(46,54,55)           118.9889         estimate D2E/DX2                !
 ! A123  A(35,56,57)           121.1985         estimate D2E/DX2                !
 ! A124  A(35,56,61)           117.7277         estimate D2E/DX2                !
 ! A125  A(57,56,61)           121.0736         estimate D2E/DX2                !
 ! A126  A(41,58,52)           120.9563         estimate D2E/DX2                !
 ! A127  A(41,58,59)           119.6672         estimate D2E/DX2                !
 ! A128  A(52,58,59)           119.3749         estimate D2E/DX2                !
 ! A129  A(45,60,92)           119.4374         estimate D2E/DX2                !
 ! A130  A(48,61,56)           120.9826         estimate D2E/DX2                !
 ! A131  A(48,61,62)           119.6507         estimate D2E/DX2                !
 ! A132  A(56,61,62)           119.3652         estimate D2E/DX2                !
 ! A133  A(34,63,67)           108.7576         estimate D2E/DX2                !
 ! A134  A(34,63,72)           111.9323         estimate D2E/DX2                !
 ! A135  A(34,63,80)           108.7754         estimate D2E/DX2                !
 ! A136  A(67,63,72)           108.7788         estimate D2E/DX2                !
 ! A137  A(67,63,80)           109.8063         estimate D2E/DX2                !
 ! A138  A(72,63,80)           108.7744         estimate D2E/DX2                !
 ! A139  A(30,64,76)           108.7155         estimate D2E/DX2                !
 ! A140  A(30,64,84)           111.9469         estimate D2E/DX2                !
 ! A141  A(30,64,88)           108.8106         estimate D2E/DX2                !
 ! A142  A(76,64,84)           108.7734         estimate D2E/DX2                !
 ! A143  A(76,64,88)           109.7907         estimate D2E/DX2                !
 ! A144  A(84,64,88)           108.787          estimate D2E/DX2                !
 ! A145  A(45,65,50)           120.1465         estimate D2E/DX2                !
 ! A146  A(45,65,66)           120.9138         estimate D2E/DX2                !
 ! A147  A(50,65,66)           118.9393         estimate D2E/DX2                !
 ! A148  A(63,67,68)           110.9777         estimate D2E/DX2                !
 ! A149  A(63,67,69)           112.0095         estimate D2E/DX2                !
 ! A150  A(63,67,70)           109.6869         estimate D2E/DX2                !
 ! A151  A(68,67,69)           108.2177         estimate D2E/DX2                !
 ! A152  A(68,67,70)           108.1061         estimate D2E/DX2                !
 ! A153  A(69,67,70)           107.7072         estimate D2E/DX2                !
 ! A154  A(44,71,96)           119.4558         estimate D2E/DX2                !
 ! A155  A(63,72,73)           109.333          estimate D2E/DX2                !
 ! A156  A(63,72,74)           111.8418         estimate D2E/DX2                !
 ! A157  A(63,72,75)           111.8387         estimate D2E/DX2                !
 ! A158  A(73,72,74)           107.6156         estimate D2E/DX2                !
 ! A159  A(73,72,75)           107.5925         estimate D2E/DX2                !
 ! A160  A(74,72,75)           108.442          estimate D2E/DX2                !
 ! A161  A(64,76,77)           109.6715         estimate D2E/DX2                !
 ! A162  A(64,76,78)           112.0282         estimate D2E/DX2                !
 ! A163  A(64,76,79)           110.9891         estimate D2E/DX2                !
 ! A164  A(77,76,78)           107.6858         estimate D2E/DX2                !
 ! A165  A(77,76,79)           108.0997         estimate D2E/DX2                !
 ! A166  A(78,76,79)           108.2294         estimate D2E/DX2                !
 ! A167  A(63,80,81)           112.0318         estimate D2E/DX2                !
 ! A168  A(63,80,82)           110.9852         estimate D2E/DX2                !
 ! A169  A(63,80,83)           109.6671         estimate D2E/DX2                !
 ! A170  A(81,80,82)           108.2361         estimate D2E/DX2                !
 ! A171  A(81,80,83)           107.6852         estimate D2E/DX2                !
 ! A172  A(82,80,83)           108.0984         estimate D2E/DX2                !
 ! A173  A(64,84,85)           111.8402         estimate D2E/DX2                !
 ! A174  A(64,84,86)           111.8339         estimate D2E/DX2                !
 ! A175  A(64,84,87)           109.329          estimate D2E/DX2                !
 ! A176  A(85,84,86)           108.4472         estimate D2E/DX2                !
 ! A177  A(85,84,87)           107.6121         estimate D2E/DX2                !
 ! A178  A(86,84,87)           107.6017         estimate D2E/DX2                !
 ! A179  A(64,88,89)           109.6775         estimate D2E/DX2                !
 ! A180  A(64,88,90)           110.9874         estimate D2E/DX2                !
 ! A181  A(64,88,91)           112.0201         estimate D2E/DX2                !
 ! A182  A(89,88,90)           108.109          estimate D2E/DX2                !
 ! A183  A(89,88,91)           107.6907         estimate D2E/DX2                !
 ! A184  A(90,88,91)           108.2197         estimate D2E/DX2                !
 ! A185  A(60,92,93)           105.9846         estimate D2E/DX2                !
 ! A186  A(60,92,94)           111.2468         estimate D2E/DX2                !
 ! A187  A(60,92,95)           111.2578         estimate D2E/DX2                !
 ! A188  A(93,92,94)           109.2497         estimate D2E/DX2                !
 ! A189  A(93,92,95)           109.2322         estimate D2E/DX2                !
 ! A190  A(94,92,95)           109.7714         estimate D2E/DX2                !
 ! A191  A(71,96,97)           105.9877         estimate D2E/DX2                !
 ! A192  A(71,96,98)           111.2463         estimate D2E/DX2                !
 ! A193  A(71,96,99)           111.2601         estimate D2E/DX2                !
 ! A194  A(97,96,98)           109.2473         estimate D2E/DX2                !
 ! A195  A(97,96,99)           109.2309         estimate D2E/DX2                !
 ! A196  A(98,96,99)           109.7702         estimate D2E/DX2                !
 ! A197  L(4,1,6,5,-1)         184.7514         estimate D2E/DX2                !
 ! A198  L(5,1,14,4,-1)        178.1871         estimate D2E/DX2                !
 ! A199  L(7,1,13,4,-1)        182.412          estimate D2E/DX2                !
 ! A200  L(4,1,6,5,-2)         176.0534         estimate D2E/DX2                !
 ! A201  L(5,1,14,4,-2)        170.7938         estimate D2E/DX2                !
 ! A202  L(7,1,13,4,-2)        191.385          estimate D2E/DX2                !
 ! D1    D(5,1,4,9)            -95.9222         estimate D2E/DX2                !
 ! D2    D(5,1,4,33)            81.6384         estimate D2E/DX2                !
 ! D3    D(7,1,4,9)           -167.2506         estimate D2E/DX2                !
 ! D4    D(7,1,4,33)            10.3099         estimate D2E/DX2                !
 ! D5    D(13,1,4,9)             1.3644         estimate D2E/DX2                !
 ! D6    D(13,1,4,33)          178.9249         estimate D2E/DX2                !
 ! D7    D(14,1,4,9)            93.284          estimate D2E/DX2                !
 ! D8    D(14,1,4,33)          -89.1554         estimate D2E/DX2                !
 ! D9    D(4,1,5,8)           -103.3345         estimate D2E/DX2                !
 ! D10   D(4,1,5,10)            72.6212         estimate D2E/DX2                !
 ! D11   D(6,1,5,8)             80.6122         estimate D2E/DX2                !
 ! D12   D(6,1,5,10)          -103.4321         estimate D2E/DX2                !
 ! D13   D(7,1,5,8)              1.8371         estimate D2E/DX2                !
 ! D14   D(7,1,5,10)           177.7928         estimate D2E/DX2                !
 ! D15   D(13,1,5,8)           177.3925         estimate D2E/DX2                !
 ! D16   D(13,1,5,10)           -6.6518         estimate D2E/DX2                !
 ! D17   D(5,1,6,18)             8.3361         estimate D2E/DX2                !
 ! D18   D(5,1,6,36)          -169.2212         estimate D2E/DX2                !
 ! D19   D(7,1,6,18)            79.7989         estimate D2E/DX2                !
 ! D20   D(7,1,6,36)           -97.7584         estimate D2E/DX2                !
 ! D21   D(13,1,6,18)          -88.8251         estimate D2E/DX2                !
 ! D22   D(13,1,6,36)           93.6175         estimate D2E/DX2                !
 ! D23   D(14,1,6,18)          179.182          estimate D2E/DX2                !
 ! D24   D(14,1,6,36)            1.6247         estimate D2E/DX2                !
 ! D25   D(4,1,7,12)            78.5937         estimate D2E/DX2                !
 ! D26   D(4,1,7,16)          -104.3665         estimate D2E/DX2                !
 ! D27   D(5,1,7,12)             0.4356         estimate D2E/DX2                !
 ! D28   D(5,1,7,16)           177.4754         estimate D2E/DX2                !
 ! D29   D(6,1,7,12)          -104.7126         estimate D2E/DX2                !
 ! D30   D(6,1,7,16)            72.3272         estimate D2E/DX2                !
 ! D31   D(14,1,7,12)          176.3509         estimate D2E/DX2                !
 ! D32   D(14,1,7,16)           -6.6094         estimate D2E/DX2                !
 ! D33   D(4,1,13,15)           -1.0308         estimate D2E/DX2                !
 ! D34   D(4,1,13,31)         -179.1863         estimate D2E/DX2                !
 ! D35   D(5,1,13,15)           80.1664         estimate D2E/DX2                !
 ! D36   D(5,1,13,31)          -97.9891         estimate D2E/DX2                !
 ! D37   D(6,1,13,15)         -176.7718         estimate D2E/DX2                !
 ! D38   D(6,1,13,31)            5.0727         estimate D2E/DX2                !
 ! D39   D(14,1,13,15)         -96.4449         estimate D2E/DX2                !
 ! D40   D(14,1,13,31)          85.3996         estimate D2E/DX2                !
 ! D41   D(4,1,14,27)            5.3761         estimate D2E/DX2                !
 ! D42   D(4,1,14,29)         -176.7073         estimate D2E/DX2                !
 ! D43   D(6,1,14,27)         -179.2621         estimate D2E/DX2                !
 ! D44   D(6,1,14,29)           -1.3455         estimate D2E/DX2                !
 ! D45   D(7,1,14,27)          -97.8511         estimate D2E/DX2                !
 ! D46   D(7,1,14,29)           80.0656         estimate D2E/DX2                !
 ! D47   D(13,1,14,27)          85.8169         estimate D2E/DX2                !
 ! D48   D(13,1,14,29)         -96.2664         estimate D2E/DX2                !
 ! D49   D(35,2,9,4)             0.2872         estimate D2E/DX2                !
 ! D50   D(35,2,9,15)          179.0549         estimate D2E/DX2                !
 ! D51   D(9,2,35,33)            0.1171         estimate D2E/DX2                !
 ! D52   D(9,2,35,56)          179.4524         estimate D2E/DX2                !
 ! D53   D(43,3,36,6)            0.3121         estimate D2E/DX2                !
 ! D54   D(43,3,36,29)         179.1967         estimate D2E/DX2                !
 ! D55   D(36,3,43,18)           0.122          estimate D2E/DX2                !
 ! D56   D(36,3,43,52)         179.4381         estimate D2E/DX2                !
 ! D57   D(1,4,9,2)            177.4458         estimate D2E/DX2                !
 ! D58   D(1,4,9,15)            -1.4523         estimate D2E/DX2                !
 ! D59   D(33,4,9,2)            -0.6233         estimate D2E/DX2                !
 ! D60   D(33,4,9,15)         -179.5214         estimate D2E/DX2                !
 ! D61   D(1,4,33,25)            4.373          estimate D2E/DX2                !
 ! D62   D(1,4,33,35)         -176.8528         estimate D2E/DX2                !
 ! D63   D(9,4,33,25)         -178.0651         estimate D2E/DX2                !
 ! D64   D(9,4,33,35)            0.7091         estimate D2E/DX2                !
 ! D65   D(1,5,8,12)            -3.6845         estimate D2E/DX2                !
 ! D66   D(1,5,8,23)           176.6388         estimate D2E/DX2                !
 ! D67   D(10,5,8,12)         -179.8319         estimate D2E/DX2                !
 ! D68   D(10,5,8,23)            0.4914         estimate D2E/DX2                !
 ! D69   D(1,5,10,11)            4.3461         estimate D2E/DX2                !
 ! D70   D(1,5,10,21)         -176.3303         estimate D2E/DX2                !
 ! D71   D(8,5,10,11)         -179.7757         estimate D2E/DX2                !
 ! D72   D(8,5,10,21)           -0.4521         estimate D2E/DX2                !
 ! D73   D(1,6,18,39)            4.4526         estimate D2E/DX2                !
 ! D74   D(1,6,18,43)         -176.8044         estimate D2E/DX2                !
 ! D75   D(36,6,18,39)        -177.9829         estimate D2E/DX2                !
 ! D76   D(36,6,18,43)           0.7601         estimate D2E/DX2                !
 ! D77   D(1,6,36,3)           177.3919         estimate D2E/DX2                !
 ! D78   D(1,6,36,29)           -1.6109         estimate D2E/DX2                !
 ! D79   D(18,6,36,3)           -0.6713         estimate D2E/DX2                !
 ! D80   D(18,6,36,29)        -179.6741         estimate D2E/DX2                !
 ! D81   D(1,7,12,8)            -2.4347         estimate D2E/DX2                !
 ! D82   D(1,7,12,19)          177.9028         estimate D2E/DX2                !
 ! D83   D(16,7,12,8)         -179.6122         estimate D2E/DX2                !
 ! D84   D(16,7,12,19)           0.7253         estimate D2E/DX2                !
 ! D85   D(1,7,16,17)            3.1768         estimate D2E/DX2                !
 ! D86   D(1,7,16,37)         -177.6506         estimate D2E/DX2                !
 ! D87   D(12,7,16,17)        -179.8453         estimate D2E/DX2                !
 ! D88   D(12,7,16,37)          -0.6726         estimate D2E/DX2                !
 ! D89   D(5,8,12,7)             4.0543         estimate D2E/DX2                !
 ! D90   D(5,8,12,19)         -176.2912         estimate D2E/DX2                !
 ! D91   D(23,8,12,7)         -176.2766         estimate D2E/DX2                !
 ! D92   D(23,8,12,19)           3.3778         estimate D2E/DX2                !
 ! D93   D(5,8,23,24)         -179.9869         estimate D2E/DX2                !
 ! D94   D(5,8,23,34)           -0.1742         estimate D2E/DX2                !
 ! D95   D(12,8,23,24)           0.3596         estimate D2E/DX2                !
 ! D96   D(12,8,23,34)        -179.8277         estimate D2E/DX2                !
 ! D97   D(2,9,15,13)         -178.1214         estimate D2E/DX2                !
 ! D98   D(2,9,15,46)            1.7779         estimate D2E/DX2                !
 ! D99   D(4,9,15,13)            0.6076         estimate D2E/DX2                !
 ! D100  D(4,9,15,46)         -179.4931         estimate D2E/DX2                !
 ! D101  D(5,10,21,22)        -179.7099         estimate D2E/DX2                !
 ! D102  D(5,10,21,34)           0.0858         estimate D2E/DX2                !
 ! D103  D(11,10,21,22)         -0.4084         estimate D2E/DX2                !
 ! D104  D(11,10,21,34)        179.3873         estimate D2E/DX2                !
 ! D105  D(7,12,19,20)         179.899          estimate D2E/DX2                !
 ! D106  D(7,12,19,30)          -0.1941         estimate D2E/DX2                !
 ! D107  D(8,12,19,20)           0.2605         estimate D2E/DX2                !
 ! D108  D(8,12,19,30)        -179.8326         estimate D2E/DX2                !
 ! D109  D(1,13,15,9)            0.6043         estimate D2E/DX2                !
 ! D110  D(1,13,15,46)        -179.3011         estimate D2E/DX2                !
 ! D111  D(31,13,15,9)         178.9041         estimate D2E/DX2                !
 ! D112  D(31,13,15,46)         -1.0013         estimate D2E/DX2                !
 ! D113  D(1,13,31,32)          -1.4638         estimate D2E/DX2                !
 ! D114  D(1,13,31,44)         178.7205         estimate D2E/DX2                !
 ! D115  D(15,13,31,32)       -179.55           estimate D2E/DX2                !
 ! D116  D(15,13,31,44)          0.6344         estimate D2E/DX2                !
 ! D117  D(1,14,27,28)          -1.7515         estimate D2E/DX2                !
 ! D118  D(1,14,27,45)         178.2703         estimate D2E/DX2                !
 ! D119  D(29,14,27,28)       -179.5923         estimate D2E/DX2                !
 ! D120  D(29,14,27,45)          0.4295         estimate D2E/DX2                !
 ! D121  D(1,14,29,36)           0.9308         estimate D2E/DX2                !
 ! D122  D(1,14,29,50)        -178.8756         estimate D2E/DX2                !
 ! D123  D(27,14,29,36)        179.011          estimate D2E/DX2                !
 ! D124  D(27,14,29,50)         -0.7954         estimate D2E/DX2                !
 ! D125  D(9,15,46,47)           0.709          estimate D2E/DX2                !
 ! D126  D(9,15,46,54)        -179.1589         estimate D2E/DX2                !
 ! D127  D(13,15,46,47)       -179.3979         estimate D2E/DX2                !
 ! D128  D(13,15,46,54)          0.7342         estimate D2E/DX2                !
 ! D129  D(7,16,37,30)           0.0755         estimate D2E/DX2                !
 ! D130  D(7,16,37,38)        -179.6097         estimate D2E/DX2                !
 ! D131  D(17,16,37,30)        179.2192         estimate D2E/DX2                !
 ! D132  D(17,16,37,38)         -0.466          estimate D2E/DX2                !
 ! D133  D(6,18,39,40)           0.3474         estimate D2E/DX2                !
 ! D134  D(6,18,39,41)         179.7137         estimate D2E/DX2                !
 ! D135  D(43,18,39,40)       -178.3132         estimate D2E/DX2                !
 ! D136  D(43,18,39,41)          1.0531         estimate D2E/DX2                !
 ! D137  D(6,18,43,3)           -0.5087         estimate D2E/DX2                !
 ! D138  D(6,18,43,52)        -179.8765         estimate D2E/DX2                !
 ! D139  D(39,18,43,3)         178.3393         estimate D2E/DX2                !
 ! D140  D(39,18,43,52)         -1.0285         estimate D2E/DX2                !
 ! D141  D(12,19,30,37)         -0.3869         estimate D2E/DX2                !
 ! D142  D(12,19,30,64)        179.5538         estimate D2E/DX2                !
 ! D143  D(20,19,30,37)        179.5198         estimate D2E/DX2                !
 ! D144  D(20,19,30,64)         -0.5395         estimate D2E/DX2                !
 ! D145  D(10,21,34,23)          0.2287         estimate D2E/DX2                !
 ! D146  D(10,21,34,63)       -179.8123         estimate D2E/DX2                !
 ! D147  D(22,21,34,23)       -179.9845         estimate D2E/DX2                !
 ! D148  D(22,21,34,63)         -0.0255         estimate D2E/DX2                !
 ! D149  D(8,23,34,21)          -0.1854         estimate D2E/DX2                !
 ! D150  D(8,23,34,63)         179.8542         estimate D2E/DX2                !
 ! D151  D(24,23,34,21)        179.627          estimate D2E/DX2                !
 ! D152  D(24,23,34,63)         -0.3334         estimate D2E/DX2                !
 ! D153  D(26,25,33,4)           0.3754         estimate D2E/DX2                !
 ! D154  D(26,25,33,35)       -178.3174         estimate D2E/DX2                !
 ! D155  D(48,25,33,4)         179.7369         estimate D2E/DX2                !
 ! D156  D(48,25,33,35)          1.0441         estimate D2E/DX2                !
 ! D157  D(26,25,48,49)         -0.6923         estimate D2E/DX2                !
 ! D158  D(26,25,48,61)        178.9977         estimate D2E/DX2                !
 ! D159  D(33,25,48,49)        179.9497         estimate D2E/DX2                !
 ! D160  D(33,25,48,61)         -0.3604         estimate D2E/DX2                !
 ! D161  D(14,27,45,60)       -179.9591         estimate D2E/DX2                !
 ! D162  D(14,27,45,65)          0.0804         estimate D2E/DX2                !
 ! D163  D(28,27,45,60)          0.0619         estimate D2E/DX2                !
 ! D164  D(28,27,45,65)       -179.8987         estimate D2E/DX2                !
 ! D165  D(14,29,36,3)        -178.35           estimate D2E/DX2                !
 ! D166  D(14,29,36,6)           0.5005         estimate D2E/DX2                !
 ! D167  D(50,29,36,3)           1.4438         estimate D2E/DX2                !
 ! D168  D(50,29,36,6)        -179.7057         estimate D2E/DX2                !
 ! D169  D(14,29,50,51)       -179.5393         estimate D2E/DX2                !
 ! D170  D(14,29,50,65)          0.6431         estimate D2E/DX2                !
 ! D171  D(36,29,50,51)          0.6799         estimate D2E/DX2                !
 ! D172  D(36,29,50,65)       -179.1376         estimate D2E/DX2                !
 ! D173  D(19,30,37,16)          0.4442         estimate D2E/DX2                !
 ! D174  D(19,30,37,38)       -179.8842         estimate D2E/DX2                !
 ! D175  D(64,30,37,16)       -179.4943         estimate D2E/DX2                !
 ! D176  D(64,30,37,38)          0.1773         estimate D2E/DX2                !
 ! D177  D(19,30,64,76)        -59.6147         estimate D2E/DX2                !
 ! D178  D(19,30,64,84)       -179.8036         estimate D2E/DX2                !
 ! D179  D(19,30,64,88)         59.9272         estimate D2E/DX2                !
 ! D180  D(37,30,64,76)        120.3217         estimate D2E/DX2                !
 ! D181  D(37,30,64,84)          0.1328         estimate D2E/DX2                !
 ! D182  D(37,30,64,88)       -120.1364         estimate D2E/DX2                !
 ! D183  D(13,31,44,54)         -0.0101         estimate D2E/DX2                !
 ! D184  D(13,31,44,71)        179.9025         estimate D2E/DX2                !
 ! D185  D(32,31,44,54)       -179.8327         estimate D2E/DX2                !
 ! D186  D(32,31,44,71)          0.0799         estimate D2E/DX2                !
 ! D187  D(4,33,35,2)           -0.4767         estimate D2E/DX2                !
 ! D188  D(4,33,35,56)        -179.8628         estimate D2E/DX2                !
 ! D189  D(25,33,35,2)         178.3986         estimate D2E/DX2                !
 ! D190  D(25,33,35,56)         -0.9876         estimate D2E/DX2                !
 ! D191  D(21,34,63,67)       -119.8885         estimate D2E/DX2                !
 ! D192  D(21,34,63,72)          0.326          estimate D2E/DX2                !
 ! D193  D(21,34,63,80)        120.5468         estimate D2E/DX2                !
 ! D194  D(23,34,63,67)         60.0691         estimate D2E/DX2                !
 ! D195  D(23,34,63,72)       -179.7164         estimate D2E/DX2                !
 ! D196  D(23,34,63,80)        -59.4956         estimate D2E/DX2                !
 ! D197  D(2,35,56,57)           0.7724         estimate D2E/DX2                !
 ! D198  D(2,35,56,61)        -179.0657         estimate D2E/DX2                !
 ! D199  D(33,35,56,57)       -179.9607         estimate D2E/DX2                !
 ! D200  D(33,35,56,61)          0.2011         estimate D2E/DX2                !
 ! D201  D(18,39,41,42)        179.9651         estimate D2E/DX2                !
 ! D202  D(18,39,41,58)         -0.3444         estimate D2E/DX2                !
 ! D203  D(40,39,41,42)         -0.6718         estimate D2E/DX2                !
 ! D204  D(40,39,41,58)        179.0187         estimate D2E/DX2                !
 ! D205  D(39,41,58,52)         -0.4357         estimate D2E/DX2                !
 ! D206  D(39,41,58,59)       -179.9706         estimate D2E/DX2                !
 ! D207  D(42,41,58,52)        179.2538         estimate D2E/DX2                !
 ! D208  D(42,41,58,59)         -0.2811         estimate D2E/DX2                !
 ! D209  D(3,43,52,53)           0.818          estimate D2E/DX2                !
 ! D210  D(3,43,52,58)        -178.9987         estimate D2E/DX2                !
 ! D211  D(18,43,52,53)       -179.9366         estimate D2E/DX2                !
 ! D212  D(18,43,52,58)          0.2468         estimate D2E/DX2                !
 ! D213  D(31,44,54,46)         -0.2695         estimate D2E/DX2                !
 ! D214  D(31,44,54,55)        179.979          estimate D2E/DX2                !
 ! D215  D(71,44,54,46)        179.8249         estimate D2E/DX2                !
 ! D216  D(71,44,54,55)          0.0734         estimate D2E/DX2                !
 ! D217  D(31,44,71,96)       -179.2612         estimate D2E/DX2                !
 ! D218  D(54,44,71,96)          0.6479         estimate D2E/DX2                !
 ! D219  D(27,45,60,92)       -179.4725         estimate D2E/DX2                !
 ! D220  D(65,45,60,92)          0.4865         estimate D2E/DX2                !
 ! D221  D(27,45,65,50)         -0.2422         estimate D2E/DX2                !
 ! D222  D(27,45,65,66)        179.9934         estimate D2E/DX2                !
 ! D223  D(60,45,65,50)        179.8004         estimate D2E/DX2                !
 ! D224  D(60,45,65,66)          0.036          estimate D2E/DX2                !
 ! D225  D(15,46,54,44)         -0.0973         estimate D2E/DX2                !
 ! D226  D(15,46,54,55)        179.659          estimate D2E/DX2                !
 ! D227  D(47,46,54,44)       -179.9681         estimate D2E/DX2                !
 ! D228  D(47,46,54,55)         -0.2118         estimate D2E/DX2                !
 ! D229  D(25,48,61,56)         -0.4244         estimate D2E/DX2                !
 ! D230  D(25,48,61,62)       -179.9582         estimate D2E/DX2                !
 ! D231  D(49,48,61,56)        179.2646         estimate D2E/DX2                !
 ! D232  D(49,48,61,62)         -0.2692         estimate D2E/DX2                !
 ! D233  D(29,50,65,45)         -0.1227         estimate D2E/DX2                !
 ! D234  D(29,50,65,66)        179.6463         estimate D2E/DX2                !
 ! D235  D(51,50,65,45)       -179.9445         estimate D2E/DX2                !
 ! D236  D(51,50,65,66)         -0.1755         estimate D2E/DX2                !
 ! D237  D(43,52,58,41)          0.4788         estimate D2E/DX2                !
 ! D238  D(43,52,58,59)       -179.9849         estimate D2E/DX2                !
 ! D239  D(53,52,58,41)       -179.338          estimate D2E/DX2                !
 ! D240  D(53,52,58,59)          0.1983         estimate D2E/DX2                !
 ! D241  D(35,56,61,48)          0.4982         estimate D2E/DX2                !
 ! D242  D(35,56,61,62)       -179.9667         estimate D2E/DX2                !
 ! D243  D(57,56,61,48)       -179.3401         estimate D2E/DX2                !
 ! D244  D(57,56,61,62)          0.1949         estimate D2E/DX2                !
 ! D245  D(45,60,92,93)        179.6416         estimate D2E/DX2                !
 ! D246  D(45,60,92,94)         60.9996         estimate D2E/DX2                !
 ! D247  D(45,60,92,95)        -61.7317         estimate D2E/DX2                !
 ! D248  D(34,63,67,68)         60.0356         estimate D2E/DX2                !
 ! D249  D(34,63,67,69)        -61.0371         estimate D2E/DX2                !
 ! D250  D(34,63,67,70)        179.4213         estimate D2E/DX2                !
 ! D251  D(72,63,67,68)        -62.1125         estimate D2E/DX2                !
 ! D252  D(72,63,67,69)        176.8148         estimate D2E/DX2                !
 ! D253  D(72,63,67,70)         57.2733         estimate D2E/DX2                !
 ! D254  D(80,63,67,68)        178.9558         estimate D2E/DX2                !
 ! D255  D(80,63,67,69)         57.8831         estimate D2E/DX2                !
 ! D256  D(80,63,67,70)        -61.6585         estimate D2E/DX2                !
 ! D257  D(34,63,72,73)        179.8728         estimate D2E/DX2                !
 ! D258  D(34,63,72,74)         60.7856         estimate D2E/DX2                !
 ! D259  D(34,63,72,75)        -61.0706         estimate D2E/DX2                !
 ! D260  D(67,63,72,73)        -59.9251         estimate D2E/DX2                !
 ! D261  D(67,63,72,74)       -179.0123         estimate D2E/DX2                !
 ! D262  D(67,63,72,75)         59.1315         estimate D2E/DX2                !
 ! D263  D(80,63,72,73)         59.6515         estimate D2E/DX2                !
 ! D264  D(80,63,72,74)        -59.4358         estimate D2E/DX2                !
 ! D265  D(80,63,72,75)        178.708          estimate D2E/DX2                !
 ! D266  D(34,63,80,81)         61.1487         estimate D2E/DX2                !
 ! D267  D(34,63,80,82)        -59.9682         estimate D2E/DX2                !
 ! D268  D(34,63,80,83)       -179.3363         estimate D2E/DX2                !
 ! D269  D(67,63,80,81)        -57.7605         estimate D2E/DX2                !
 ! D270  D(67,63,80,82)       -178.8774         estimate D2E/DX2                !
 ! D271  D(67,63,80,83)         61.7545         estimate D2E/DX2                !
 ! D272  D(72,63,80,81)       -176.6949         estimate D2E/DX2                !
 ! D273  D(72,63,80,82)         62.1881         estimate D2E/DX2                !
 ! D274  D(72,63,80,83)        -57.18           estimate D2E/DX2                !
 ! D275  D(30,64,76,77)       -179.3187         estimate D2E/DX2                !
 ! D276  D(30,64,76,78)         61.1648         estimate D2E/DX2                !
 ! D277  D(30,64,76,79)        -59.9438         estimate D2E/DX2                !
 ! D278  D(84,64,76,77)        -57.182          estimate D2E/DX2                !
 ! D279  D(84,64,76,78)       -176.6985         estimate D2E/DX2                !
 ! D280  D(84,64,76,79)         62.1929         estimate D2E/DX2                !
 ! D281  D(88,64,76,77)         61.7526         estimate D2E/DX2                !
 ! D282  D(88,64,76,78)        -57.7638         estimate D2E/DX2                !
 ! D283  D(88,64,76,79)       -178.8724         estimate D2E/DX2                !
 ! D284  D(30,64,84,85)         60.7891         estimate D2E/DX2                !
 ! D285  D(30,64,84,86)        -61.0692         estimate D2E/DX2                !
 ! D286  D(30,64,84,87)        179.8683         estimate D2E/DX2                !
 ! D287  D(76,64,84,85)        -59.366          estimate D2E/DX2                !
 ! D288  D(76,64,84,86)        178.7757         estimate D2E/DX2                !
 ! D289  D(76,64,84,87)         59.7132         estimate D2E/DX2                !
 ! D290  D(88,64,84,85)       -178.928          estimate D2E/DX2                !
 ! D291  D(88,64,84,86)         59.2137         estimate D2E/DX2                !
 ! D292  D(88,64,84,87)        -59.8487         estimate D2E/DX2                !
 ! D293  D(30,64,88,89)        179.4566         estimate D2E/DX2                !
 ! D294  D(30,64,88,90)         60.0673         estimate D2E/DX2                !
 ! D295  D(30,64,88,91)        -61.022          estimate D2E/DX2                !
 ! D296  D(76,64,88,89)        -61.6733         estimate D2E/DX2                !
 ! D297  D(76,64,88,90)        178.9374         estimate D2E/DX2                !
 ! D298  D(76,64,88,91)         57.848          estimate D2E/DX2                !
 ! D299  D(84,64,88,89)         57.2529         estimate D2E/DX2                !
 ! D300  D(84,64,88,90)        -62.1363         estimate D2E/DX2                !
 ! D301  D(84,64,88,91)        176.7743         estimate D2E/DX2                !
 ! D302  D(44,71,96,97)        179.5807         estimate D2E/DX2                !
 ! D303  D(44,71,96,98)         60.9401         estimate D2E/DX2                !
 ! D304  D(44,71,96,99)        -61.791          estimate D2E/DX2                !
 --------------------------------------------------------------------------------
 Trust Radius=5.00D-02 FncErr=5.00D-06 GrdErr=5.00D-06 EigMax=2.50D+02 EigMin=1.00D-04
 Number of steps in this run=    500 maximum allowed number of steps=    594.
 GradGradGradGradGradGradGradGradGradGradGradGradGradGradGradGradGradGrad

 Stoichiometry    C46H44IrN4O2S2(2+,2)
 Framework group  C1[X(C46H44IrN4O2S2)]
 Deg. of freedom   291
 Full point group                 C1      NOp   1
 Largest Abelian subgroup         C1      NOp   1
 Largest concise Abelian subgroup C1      NOp   1
                         Standard orientation:                         
 ---------------------------------------------------------------------
 Center     Atomic      Atomic             Coordinates (Angstroms)
 Number     Number       Type             X           Y           Z
 ---------------------------------------------------------------------
      1         77           0        0.722725   -0.012802    0.007550
      2         16           0        1.634855    2.713298    3.494295
      3         16           0        1.829307   -2.680283   -3.465155
      4          7           0        0.791161    0.884399    1.904252
      5          7           0       -1.060805    1.303762   -0.223266
      6          7           0        0.878272   -0.894252   -1.885693
      7          7           0       -1.064037   -1.338234    0.176939
      8          6           0       -2.272443    0.720700   -0.117293
      9          6           0        1.611804    1.914756    1.965632
     10          6           0       -0.988225    2.628621   -0.379388
     11          1           0        0.010023    3.063429   -0.465244
     12          6           0       -2.273782   -0.753968    0.057914
     13          6           0        2.075231    1.415748   -0.340905
     14          6           0        2.124157   -1.388027    0.383192
     15          6           0        2.354598    2.259838    0.774867
     16          6           0       -0.991782   -2.662944    0.329390
     17          1           0        0.006565   -3.095782    0.424707
     18          6           0        0.232592   -0.671769   -3.092008
     19          6           0       -3.437753   -1.509581    0.107083
     20          1           0       -4.402838   -1.012738    0.009999
     21          6           0       -2.113543    3.437716   -0.447069
     22          1           0       -1.965811    4.509272   -0.580354
     23          6           0       -3.435665    1.476908   -0.178645
     24          1           0       -4.401817    0.980599   -0.090035
     25          6           0       -0.783581   -0.386731    3.368273
     26          1           0       -1.030343   -1.124464    2.605257
     27          6           0        2.743773   -1.618463    1.610227
     28          1           0        2.513918   -1.014455    2.491230
     29          6           0        2.462553   -2.218741   -0.727171
     30          6           0       -3.389118   -2.900145    0.277577
     31          6           0        2.714888    1.665860   -1.552246
     32          1           0        2.529161    1.052766   -2.437259
     33          6           0        0.121813    0.645966    3.093987
     34          6           0       -3.385052    2.867869   -0.348755
     35          6           0        0.459140    1.571503    4.098510
     36          6           0        1.737396   -1.894068   -1.933185
     37          6           0       -2.118450   -3.471550    0.384801
     38          1           0       -1.973063   -4.543484    0.517557
     39          6           0       -0.701295    0.329673   -3.385647
     40          1           0       -0.995123    1.053160   -2.626027
     41          6           0       -1.229292    0.383625   -4.666765
     42          1           0       -1.959701    1.159542   -4.910304
     43          6           0        0.629419   -1.577574   -4.092761
     44          6           0        3.627979    2.722108   -1.666864
     45          6           0        3.688852   -2.643156    1.745113
     46          6           0        3.269478    3.304286    0.657090
     47          1           0        3.499946    3.952750    1.507686
     48          6           0       -1.344000   -0.452028    4.635091
     49          1           0       -2.053047   -1.251778    4.864329
     50          6           0        3.408935   -3.231679   -0.589145
     51          1           0        3.682383   -3.870237   -1.434505
     52          6           0        0.099329   -1.523469   -5.383607
     53          1           0        0.413024   -2.232065   -6.154002
     54          6           0        3.905273    3.538844   -0.557267
     55          1           0        4.614792    4.365217   -0.632088
     56          6           0       -0.103322    1.505325    5.375016
     57          1           0        0.163643    2.228544    6.149350
     58          6           0       -0.838040   -0.535241   -5.656504
     59          1           0       -1.270684   -0.468460   -6.658209
     60          8           0        4.224563   -2.789090    2.946901
     61          6           0       -1.012215    0.485835    5.628786
     62          1           0       -1.469225    0.409259    6.618909
     63          6           0       -4.678708    3.678911   -0.416743
     64          6           0       -4.685097   -3.708197    0.338679
     65          6           0        4.020989   -3.447140    0.640608
     66          1           0        4.756013   -4.249290    0.731563
     67          6           0       -5.455571    3.483525    0.898998
     68          1           0       -4.860441    3.825836    1.764134
     69          1           0       -5.729291    2.427366    1.064740
     70          1           0       -6.389462    4.072007    0.870487
     71          8           0        4.187706    2.881591   -2.856326
     72          6           0       -4.406950    5.175261   -0.611960
     73          1           0       -5.366701    5.717997   -0.657318
     74          1           0       -3.865390    5.375002   -1.552990
     75          1           0       -3.823113    5.599080    0.223710
     76          6           0       -5.530816   -3.197507    1.520885
     77          1           0       -6.466801   -3.779592    1.587171
     78          1           0       -5.804471   -2.134608    1.405404
     79          1           0       -4.986889   -3.312526    2.475260
     80          6           0       -5.521664    3.169426   -1.601233
     81          1           0       -5.798776    2.107446   -1.485651
     82          1           0       -4.974093    3.282050   -2.553797
     83          1           0       -6.455735    3.754127   -1.671312
     84          6           0       -4.418232   -5.205422    0.533313
     85          1           0       -3.881599   -5.407714    1.476610
     86          1           0       -3.831666   -5.629695   -0.300199
     87          1           0       -5.379665   -5.745579    0.573668
     88          6           0       -5.457146   -3.509130   -0.979312
     89          1           0       -6.392609   -4.095266   -0.954420
     90          1           0       -4.860221   -3.851789   -1.843045
     91          1           0       -5.727975   -2.452153   -1.144605
     92          6           0        5.194494   -3.795118    3.157485
     93          1           0        5.488720   -3.715584    4.213497
     94          1           0        6.081701   -3.635591    2.519279
     95          1           0        4.775998   -4.800175    2.971098
     96          6           0        5.131488    3.915919   -3.047171
     97          1           0        5.453750    3.842068   -4.095397
     98          1           0        6.007273    3.785449   -2.386959
     99          1           0        4.678329    4.908376   -2.874938
 ---------------------------------------------------------------------
 Rotational constants (GHZ):           0.0500235           0.0417769           0.0409017
 Standard basis: def2SVPP (5D, 7F)
 There are   933 symmetry adapted cartesian basis functions of A   symmetry.
 There are   877 symmetry adapted basis functions of A   symmetry.
   877 basis functions,  1605 primitive gaussians,   933 cartesian basis functions
   206 alpha electrons      205 beta electrons
       nuclear repulsion energy      8814.8772488002 Hartrees.
 NAtoms=   99 NActive=   99 NUniq=   99 SFac= 1.00D+00 NAtFMM=   60 NAOKFM=T Big=T
 Integral buffers will be    131072 words long.
 Raffenetti 2 integral format.
 Two-electron integral symmetry is turned on.
 Nuclear repulsion after empirical dispersion term =     8814.7575706459 Hartrees.
 ------------------------------------------------------------------------------
 Polarizable Continuum Model (PCM)
 =================================
 Model                : PCM.
 Atomic radii         : SMD-Coulomb.
 Polarization charges : Total charges.
 Charge compensation  : None.
 Solution method      : On-the-fly selection.
 Cavity type          : VdW (van der Waals Surface) (Alpha=1.000).
 Cavity algorithm     : GePol (No added spheres)
                        Default sphere list used, NSphG=   99.
                        Lebedev-Laikov grids with approx.  5.0 points / Ang**2.
                        Smoothing algorithm: York/Karplus (Gamma=1.0000).
                        Polarization charges: spherical gaussians, with
                                              point-specific exponents (IZeta= 3).
                        Self-potential: point-specific (ISelfS= 7).
                        Self-field    : sphere-specific E.n sum rule (ISelfD= 2).
 1st derivatives      : Analytical E(r).r(x)/FMM algorithm (CHGder, D1EAlg=3).
                        Cavity 1st derivative terms included.
 Solvent              : Acetonitrile, Eps=  35.688000 Eps(inf)=   1.806874
 ------------------------------------------------------------------------------
 ------------------------------------------------------------------------------
 Atomic radii for non-electrostatic terms: SMD-CDS.
 ------------------------------------------------------------------------------
 Nuclear repulsion after PCM non-electrostatic terms =     8814.7439128538 Hartrees.
 One-electron integrals computed using PRISM.
   1 Symmetry operations used in ECPInt.
 ECPInt:  NShTT=   91378 NPrTT=  365952 LenC2=   74256 LenP2D=  177296.
 LDataN:  DoStor=T MaxTD1= 7 Len=  274
 NBasis=   877 RedAO= T EigKep=  2.10D-04  NBF=   877
 NBsUse=   877 1.00D-06 EigRej= -1.00D+00 NBFU=   877
 ExpMin= 4.98D-02 ExpMax= 9.18D+03 ExpMxC= 1.38D+03 IAcc=3 IRadAn=         7 AccDes= 0.00D+00
 Harris functional with IExCor= 4639 and IRadAn=       7 diagonalized for initial guess.
 HarFok:  IExCor= 4639 AccDes= 0.00D+00 IRadAn=         7 IDoV= 1 UseB2=F ITyADJ=14
 ICtDFT=  3500011 ScaDFX=  1.000000  1.000000  1.000000  1.000000
 FoFCou: FMM=F IPFlag=           0 FMFlag=      100000 FMFlg1=        2001
         NFxFlg=           0 DoJE=T BraDBF=F KetDBF=T FulRan=T
         wScrn=  0.000000 ICntrl=       500 IOpCl=  0 I1Cent=   200000004 NGrid=           0
         NMat0=    1 NMatS0=      1 NMatT0=    0 NMatD0=    1 NMtDS0=    0 NMtDT0=    0
 Petite list used in FoFCou.
 Initial guess <Sx>= 0.0000 <Sy>= 0.0000 <Sz>= 0.5000 <S**2>= 0.7500 S= 0.5000
 Requested convergence on RMS density matrix=1.00D-08 within 500 cycles.
 Requested convergence on MAX density matrix=1.00D-06.
 Requested convergence on             energy=1.00D-06.
 No special actions if energy rises.
 Inv3:  Mode=1 IEnd=   146203083.
 Iteration    1 A*A^-1 deviation from unit magnitude is 8.88D-15 for   6968.
 Iteration    1 A*A^-1 deviation from orthogonality  is 4.14D-15 for   6966   6785.
 Iteration    1 A^-1*A deviation from unit magnitude is 8.88D-15 for   6968.
 Iteration    1 A^-1*A deviation from orthogonality  is 2.49D-11 for   6087   6077.
 Restarting incremental Fock formation.
 Error on total polarization charges =  0.06411
 SCF Done:  E(UwB97XD) =  -3046.93451304     A.U. after   34 cycles
            NFock= 34  Conv=0.35D-08     -V/T= 2.0316
 <Sx>= 0.0000 <Sy>= 0.0000 <Sz>= 0.5000 <S**2>= 0.7747 S= 0.5123
 <L.S>= 0.000000000000E+00
 SMD-CDS (non-electrostatic) energy       (kcal/mol) =      -8.57
 (included in total energy above)
 Annihilation of the first spin contaminant:
 S**2 before annihilation     0.7747,   after     0.7505

 **********************************************************************

            Population analysis using the SCF Density.

 **********************************************************************

 Orbital symmetries:
 Alpha Orbitals:
       Occupied  (A) (A) (A) (A) (A) (A) (A) (A) (A) (A) (A) (A)
                 (A) (A) (A) (A) (A) (A) (A) (A) (A) (A) (A) (A)
                 (A) (A) (A) (A) (A) (A) (A) (A) (A) (A) (A) (A)
                 (A) (A) (A) (A) (A) (A) (A) (A) (A) (A) (A) (A)
                 (A) (A) (A) (A) (A) (A) (A) (A) (A) (A) (A) (A)
                 (A) (A) (A) (A) (A) (A) (A) (A) (A) (A) (A) (A)
                 (A) (A) (A) (A) (A) (A) (A) (A) (A) (A) (A) (A)
                 (A) (A) (A) (A) (A) (A) (A) (A) (A) (A) (A) (A)
                 (A) (A) (A) (A) (A) (A) (A) (A) (A) (A) (A) (A)
                 (A) (A) (A) (A) (A) (A) (A) (A) (A) (A) (A) (A)
                 (A) (A) (A) (A) (A) (A) (A) (A) (A) (A) (A) (A)
                 (A) (A) (A) (A) (A) (A) (A) (A) (A) (A) (A) (A)
                 (A) (A) (A) (A) (A) (A) (A) (A) (A) (A) (A) (A)
                 (A) (A) (A) (A) (A) (A) (A) (A) (A) (A) (A) (A)
                 (A) (A) (A) (A) (A) (A) (A) (A) (A) (A) (A) (A)
                 (A) (A) (A) (A) (A) (A) (A) (A) (A) (A) (A) (A)
                 (A) (A) (A) (A) (A) (A) (A) (A) (A) (A) (A) (A)
                 (A) (A)
       Virtual   (A) (A) (A) (A) (A) (A) (A) (A) (A) (A) (A) (A)
                 (A) (A) (A) (A) (A) (A) (A) (A) (A) (A) (A) (A)
                 (A) (A) (A) (A) (A) (A) (A) (A) (A) (A) (A) (A)
                 (A) (A) (A) (A) (A) (A) (A) (A) (A) (A) (A) (A)
                 (A) (A) (A) (A) (A) (A) (A) (A) (A) (A) (A) (A)
                 (A) (A) (A) (A) (A) (A) (A) (A) (A) (A) (A) (A)
                 (A) (A) (A) (A) (A) (A) (A) (A) (A) (A) (A) (A)
                 (A) (A) (A) (A) (A) (A) (A) (A) (A) (A) (A) (A)
                 (A) (A) (A) (A) (A) (A) (A) (A) (A) (A) (A) (A)
                 (A) (A) (A) (A) (A) (A) (A) (A) (A) (A) (A) (A)
                 (A) (A) (A) (A) (A) (A) (A) (A) (A) (A) (A) (A)
                 (A) (A) (A) (A) (A) (A) (A) (A) (A) (A) (A) (A)
                 (A) (A) (A) (A) (A) (A) (A) (A) (A) (A) (A) (A)
                 (A) (A) (A) (A) (A) (A) (A) (A) (A) (A) (A) (A)
                 (A) (A) (A) (A) (A) (A) (A) (A) (A) (A) (A) (A)
                 (A) (A) (A) (A) (A) (A) (A) (A) (A) (A) (A) (A)
                 (A) (A) (A) (A) (A) (A) (A) (A) (A) (A) (A) (A)
                 (A) (A) (A) (A) (A) (A) (A) (A) (A) (A) (A) (A)
                 (A) (A) (A) (A) (A) (A) (A) (A) (A) (A) (A) (A)
                 (A) (A) (A) (A) (A) (A) (A) (A) (A) (A) (A) (A)
                 (A) (A) (A) (A) (A) (A) (A) (A) (A) (A) (A) (A)
                 (A) (A) (A) (A) (A) (A) (A) (A) (A) (A) (A) (A)
                 (A) (A) (A) (A) (A) (A) (A) (A) (A) (A) (A) (A)
                 (A) (A) (A) (A) (A) (A) (A) (A) (A) (A) (A) (A)
                 (A) (A) (A) (A) (A) (A) (A) (A) (A) (A) (A) (A)
                 (A) (A) (A) (A) (A) (A) (A) (A) (A) (A) (A) (A)
                 (A) (A) (A) (A) (A) (A) (A) (A) (A) (A) (A) (A)
                 (A) (A) (A) (A) (A) (A) (A) (A) (A) (A) (A) (A)
                 (A) (A) (A) (A) (A) (A) (A) (A) (A) (A) (A) (A)
                 (A) (A) (A) (A) (A) (A) (A) (A) (A) (A) (A) (A)
                 (A) (A) (A) (A) (A) (A) (A) (A) (A) (A) (A) (A)
                 (A) (A) (A) (A) (A) (A) (A) (A) (A) (A) (A) (A)
                 (A) (A) (A) (A) (A) (A) (A) (A) (A) (A) (A) (A)
                 (A) (A) (A) (A) (A) (A) (A) (A) (A) (A) (A) (A)
                 (A) (A) (A) (A) (A) (A) (A) (A) (A) (A) (A) (A)
                 (A) (A) (A) (A) (A) (A) (A) (A) (A) (A) (A) (A)
                 (A) (A) (A) (A) (A) (A) (A) (A) (A) (A) (A) (A)
                 (A) (A) (A) (A) (A) (A) (A) (A) (A) (A) (A) (A)
                 (A) (A) (A) (A) (A) (A) (A) (A) (A) (A) (A) (A)
                 (A) (A) (A) (A) (A) (A) (A) (A) (A) (A) (A) (A)
                 (A) (A) (A) (A) (A) (A) (A) (A) (A) (A) (A) (A)
                 (A) (A) (A) (A) (A) (A) (A) (A) (A) (A) (A) (A)
                 (A) (A) (A) (A) (A) (A) (A) (A) (A) (A) (A) (A)
                 (A) (A) (A) (A) (A) (A) (A) (A) (A) (A) (A) (A)
                 (A) (A) (A) (A) (A) (A) (A) (A) (A) (A) (A) (A)
                 (A) (A) (A) (A) (A) (A) (A) (A) (A) (A) (A) (A)
                 (A) (A) (A) (A) (A) (A) (A) (A) (A) (A) (A) (A)
                 (A) (A) (A) (A) (A) (A) (A) (A) (A) (A) (A) (A)
                 (A) (A) (A) (A) (A) (A) (A) (A) (A) (A) (A) (A)
                 (A) (A) (A) (A) (A) (A) (A) (A) (A) (A) (A) (A)
                 (A) (A) (A) (A) (A) (A) (A) (A) (A) (A) (A) (A)
                 (A) (A) (A) (A) (A) (A) (A) (A) (A) (A) (A) (A)
                 (A) (A) (A) (A) (A) (A) (A) (A) (A) (A) (A) (A)
                 (A) (A) (A) (A) (A) (A) (A) (A) (A) (A) (A) (A)
                 (A) (A) (A) (A) (A) (A) (A) (A) (A) (A) (A) (A)
                 (A) (A) (A) (A) (A) (A) (A) (A) (A) (A) (A)
 Beta  Orbitals:
       Occupied  (A) (A) (A) (A) (A) (A) (A) (A) (A) (A) (A) (A)
                 (A) (A) (A) (A) (A) (A) (A) (A) (A) (A) (A) (A)
                 (A) (A) (A) (A) (A) (A) (A) (A) (A) (A) (A) (A)
                 (A) (A) (A) (A) (A) (A) (A) (A) (A) (A) (A) (A)
                 (A) (A) (A) (A) (A) (A) (A) (A) (A) (A) (A) (A)
                 (A) (A) (A) (A) (A) (A) (A) (A) (A) (A) (A) (A)
                 (A) (A) (A) (A) (A) (A) (A) (A) (A) (A) (A) (A)
                 (A) (A) (A) (A) (A) (A) (A) (A) (A) (A) (A) (A)
                 (A) (A) (A) (A) (A) (A) (A) (A) (A) (A) (A) (A)
                 (A) (A) (A) (A) (A) (A) (A) (A) (A) (A) (A) (A)
                 (A) (A) (A) (A) (A) (A) (A) (A) (A) (A) (A) (A)
                 (A) (A) (A) (A) (A) (A) (A) (A) (A) (A) (A) (A)
                 (A) (A) (A) (A) (A) (A) (A) (A) (A) (A) (A) (A)
                 (A) (A) (A) (A) (A) (A) (A) (A) (A) (A) (A) (A)
                 (A) (A) (A) (A) (A) (A) (A) (A) (A) (A) (A) (A)
                 (A) (A) (A) (A) (A) (A) (A) (A) (A) (A) (A) (A)
                 (A) (A) (A) (A) (A) (A) (A) (A) (A) (A) (A) (A)
                 (A)
       Virtual   (A) (A) (A) (A) (A) (A) (A) (A) (A) (A) (A) (A)
                 (A) (A) (A) (A) (A) (A) (A) (A) (A) (A) (A) (A)
                 (A) (A) (A) (A) (A) (A) (A) (A) (A) (A) (A) (A)
                 (A) (A) (A) (A) (A) (A) (A) (A) (A) (A) (A) (A)
                 (A) (A) (A) (A) (A) (A) (A) (A) (A) (A) (A) (A)
                 (A) (A) (A) (A) (A) (A) (A) (A) (A) (A) (A) (A)
                 (A) (A) (A) (A) (A) (A) (A) (A) (A) (A) (A) (A)
[...]
 9,-0.00000636,-0.00000121,0.00000186,-0.00000114,0.00000028,-0.0000184
 7,-0.00001664,-0.00001090,-0.00000033,-0.00000055,-0.00000194,0.000000
 45,-0.00000915,0.00002525,0.00000218,0.00000099,0.00000148,0.00002108,
 0.00002110,0.00000860,-0.00195613,0.00193648,0.00629856,-0.00007920,-0
 .00014621,0.00015979,-0.00008931,-0.00014068,0.00004416,0.00001505,-0.
 00000619,-0.00005671,0.00000967,0.00001436,-0.00004703,0.00000249,-0.0
 0000186,-0.00000235,-0.00000739,0.00000455,-0.00004069,-0.00000077,-0.
 00000335,0.00000626,-0.00000144,0.00000252,-0.00000889,0.00000006,-0.0
 0000103,0.00000150,-0.00049351,0.00061685,-0.00130108,0.00023019,0.000
 00112,0.00010820,-0.00002167,0.00000421,0.00004129,-0.00000094,0.00000
 172,-0.00000172,0.00001292,0.00001400,0.00000347,0.00000144,0.00000029
 ,0.00000141,-0.00003490,-0.00000868,-0.00007576,0.00003321,-0.00003987
 ,-0.00000563,0.00000219,-0.00000177,-0.00000195,-0.00000035,-0.0000023
 0,-0.00000005,-0.00000033,0.00000206,0.00000031,-0.00000324,0.00003018
 ,-0.00008840,-0.00000027,0.00000062,-0.00000371,0.00000097,0.00000151,
 0.00000126,-0.00000013,-0.00000025,0.00000005,-0.00000044,0.00000018,0
 .00000012,0.00000074,0.00000019,-0.00000064,0.03373595,-0.00495017,0.0
 1288152,0.00000148,-0.00000030,-0.00000063,0.00000024,0.00000071,0.000
 00010,-0.00000019,0.00000005,0.00000041,-0.00000004,-0.00000008,0.,0.0
 0000094,-0.00000195,0.00000132,0.00000088,0.00000001,-0.00000075,-0.00
 000034,-0.00000002,-0.00000003,-0.00000018,0.00000019,0.00000003,0.000
 00101,0.00000196,-0.00000160,-0.00000030,0.00000015,0.00000002,-0.0000
 0014,-0.00000022,0.00000042,0.00000086,-0.00000011,0.00000071,0.000001
 25,0.00000038,0.00000010,-0.00000010,0.00000001,0.00000017,-0.00000015
 ,-0.00000002,-0.00000016,0.00000038,-0.00000070,-0.00000010,0.00000104
 ,-0.00000162,-0.00000183,0.00000088,-0.00000013,0.00000083,-0.00000020
 ,0.00000002,0.00000019,-0.00000024,0.00000011,-0.00000006,0.00002897,0
 .00002793,0.00000775,-0.00000209,-0.00000134,-0.00000253,-0.00000325,-
 0.00000280,0.00000356,-0.00000151,-0.00000407,0.00000294,-0.03316717,-
 0.05713550,-0.02487942,0.00242616,0.00128248,0.00218344,0.01909167,0.0
 5891433,0.00002787,-0.00056146,-0.00001289,0.00001068,-0.00004498,0.00
 006112,0.00000609,0.00000401,0.00000159,-0.00015477,0.00023446,0.00000
 932,0.00001220,-0.00000011,0.00000238,0.00003249,0.00007148,-0.0000011
 9,0.00001032,0.00003996,0.00003242,0.00000424,-0.00000441,-0.00000162,
 0.00031669,-0.00008878,-0.00026009,-0.00000677,-0.00000640,0.00000047,
 -0.00000273,-0.00000122,-0.00000550,0.00001352,0.00001010,-0.00000118,
 -0.00036048,0.00020095,0.00029341,0.00024819,0.00024930,-0.00001089,-0
 .00060277,0.00054755,0.00031058,-0.00000967,-0.00002713,-0.00000059,0.
 00000997,-0.00000303,-0.00000134,-0.00001668,0.00000057,-0.00003246,-0
 .00000437,0.00000347,-0.00000189,-0.00000092,0.00000040,-0.00000007,-0
 .00000060,-0.00000217,0.00000109,-0.00000051,-0.00000044,-0.00000081,-
 0.00000277,-0.00000211,-0.00000033,-0.00000055,-0.00000018,0.00000015,
 -0.00001157,0.00001381,0.00000782,0.00000145,-0.00000029,-0.00000061,-
 0.00009634,-0.00007078,-0.00011668,-0.00000489,-0.00000080,0.00000547,
 -0.00003529,-0.00009876,0.00014996,0.00000390,-0.00000079,0.00000072,0
 .00012459,-0.00065946,-0.00030470,0.00006285,0.00003303,0.00001398,0.0
 0000971,-0.00003461,-0.00007569,0.00000116,0.00000097,0.00000040,-0.00
 000182,-0.00001696,0.00003023,-0.00004198,-0.00005112,0.00001645,-0.00
 000529,0.00000639,-0.00000136,-0.00000188,0.00000106,-0.00000098,0.000
 01831,0.00001921,0.00001078,0.00000109,-0.00000061,-0.00000019,-0.0000
 0061,0.00001002,-0.00002408,-0.00000089,-0.00000128,-0.00000119,-0.000
 02330,-0.00002225,-0.00000664,0.00109623,0.00089522,0.00084262,0.00007
 589,0.00014562,-0.00015760,0.00042955,-0.00106613,-0.00078119,0.000023
 40,0.00002762,0.00003252,-0.00000220,0.00000496,-0.00000711,0.00000061
 ,0.00000020,0.00000040,0.00001399,0.00000027,0.00005177,0.00000087,0.0
 0000297,-0.00000667,0.00000024,-0.00000392,0.00000834,0.00000030,0.000
 00070,-0.00000130,-0.00023138,0.00068301,0.00099861,0.00171761,0.00030
 554,-0.00097108,0.00001360,-0.00000840,-0.00001415,-0.00000016,0.00000
 004,-0.00000019,-0.00001243,-0.00001225,-0.00000318,-0.00000071,-0.000
 00080,-0.00000114,0.00003185,0.00000860,0.00007109,-0.00000517,0.00000
 471,0.00000221,0.00000014,0.00000063,0.00000024,0.00000050,0.00000103,
 -0.00000050,0.00000014,-0.00000181,0.,0.00000810,-0.00002389,0.0000801
 8,-0.00000059,-0.00000009,0.00000383,-0.00000043,-0.00000063,-0.000001
 00,0.00000012,-0.00000001,0.00000022,0.00000007,0.00000007,0.00000003,
 -0.00000050,-0.00000013,0.00000046,0.00780420,0.00207139,0.00792345,-0
 .00000051,0.00000028,-0.00000012,-0.00000030,-0.00000045,-0.00000003,0
 .00000003,0.00000004,0.00000021,0.00000013,-0.00000008,-0.00000002,-0.
 00000084,0.00000173,-0.00000129,-0.00000076,-0.00000012,0.00000069,0.0
 0000017,0.,-0.00000004,0.00000017,-0.00000006,0.00000017,-0.00000046,-
 0.00000107,0.00000049,0.00000021,0.00000002,-0.00000001,0.00000016,0.0
 0000013,0.00000021,-0.00000058,-0.00000006,-0.00000036,-0.00000102,-0.
 00000041,-0.00000010,0.00000016,0.00000009,-0.00000004,0.00000007,-0.0
 0000004,0.00000016,-0.00000032,0.00000058,0.00000007,-0.00000082,0.000
 00131,0.00000146,-0.00000074,0.00000013,-0.00000064,0.00000013,-0.0000
 0017,-0.00000005,0.00000029,0.00000004,-0.00000005,-0.00002801,-0.0000
 2557,-0.00000692,0.00000203,0.00000134,0.00000269,0.00000309,0.0000028
 2,-0.00000360,0.00000180,0.00000354,-0.00000277,-0.12951729,-0.0218684
 4,-0.15354318,-0.02297484,-0.00465218,-0.01269362,0.13605310,0.0224868
 2,0.15365442,0.00013036,-0.00013999,0.00003674,0.00001274,-0.00003487,
 0.00002873,0.00000455,0.00000547,-0.00000480,-0.00004985,0.00006562,-0
 .00000056,-0.00002767,-0.00000639,-0.00000158,0.00002393,0.00003505,-0
 .00000825,-0.00005563,0.00001008,-0.00000713,0.00000940,-0.00001267,-0
 .00000088,0.00018540,-0.00001839,-0.00017922,0.00000650,0.00000426,0.0
 0000619,0.00000915,0.00000739,-0.00000456,0.00000688,0.00001873,0.0000
 0253,-0.00011365,0.00004704,-0.00065234,0.00009117,0.00014094,-0.00001
 866,0.00004673,-0.00033541,0.00051539,-0.00000294,-0.00001747,-0.00000
 391,0.00000575,-0.00000150,-0.00000161,0.00000748,-0.00000017,-0.00000
 988,-0.00000571,0.00000029,0.00000016,-0.00000121,0.00000088,0.0000001
 0,-0.00000285,0.00000039,-0.00000051,-0.00000111,-0.00000055,0.0000005
 8,-0.00000468,-0.00000243,0.,-0.00000073,-0.00000052,-0.00000020,0.000
 01974,-0.00002113,-0.00001160,-0.00000036,0.00000035,-0.00000087,-0.00
 005923,-0.00003613,-0.00005075,-0.00000263,-0.00000260,0.00000134,-0.0
 0001972,-0.00005621,0.00007672,0.00000203,-0.00000162,0.00000005,-0.00
 130779,0.00031128,0.00038426,0.00015259,0.00001226,0.00004510,-0.00002
 199,0.00000476,0.00001595,0.00000042,0.00000149,0.00000038,-0.00003051
 ,0.00002530,0.00002481,-0.00002800,-0.00003152,0.00001340,-0.00000236,
 0.00000341,0.00000148,-0.00000107,0.00000058,0.00000015,0.00001094,0.0
 0000789,0.00000607,-0.00000023,0.00000055,0.00000149,-0.00000057,0.000
 00484,-0.00001443,-0.00000113,-0.00000038,-0.00000083,-0.00001090,-0.0
 0001157,-0.00000581,0.00377709,0.00021612,-0.00426190,0.00004572,0.000
 08414,-0.00009148,-0.00059558,0.00016417,0.00008947,-0.00000116,0.0000
 1309,0.00004421,-0.00000563,-0.00001035,0.00003505,-0.00000172,0.00000
 144,0.00000168,0.00000364,-0.00000247,0.00002227,0.00000014,0.00000212
 ,-0.00000341,0.00000138,-0.00000088,0.00000556,-0.00000016,0.00000059,
 -0.00000082,0.00037959,-0.00104284,0.00069647,0.00010208,0.00074189,0.
 00061042,0.00000993,-0.00000122,-0.00002565,0.00000050,-0.00000141,0.0
 0000118,-0.00000744,-0.00000846,-0.00000155,-0.00000083,-0.00000018,-0
 .00000063,0.00002008,0.00000452,0.00004355,-0.00002170,0.00002670,0.00
 000357,-0.00000141,0.00000133,0.00000145,0.00000019,0.00000138,0.00000
 024,0.00000028,-0.00000120,-0.00000027,0.00000053,-0.00001909,0.000050
 73,0.00000036,-0.00000039,0.00000207,-0.00000062,-0.00000095,-0.000000
 76,0.00000006,0.00000016,-0.00000007,0.00000028,-0.00000010,-0.0000000
 7,-0.00000041,-0.00000010,0.00000040,0.00826752,0.03271714,-0.00066393
 ,-0.00000076,0.00000002,0.00000023,-0.00000001,-0.00000038,-0.00000008
 ,-0.00000004,-0.00000001,-0.00000006,-0.00000010,0.00000014,-0.0000000
 8,-0.00000057,0.00000112,-0.00000076,-0.00000050,0.,0.00000043,0.00000
 023,0.00000005,0.00000002,0.00000010,-0.00000013,-0.00000004,-0.000000
 59,-0.00000120,0.00000091,0.00000018,-0.00000009,0.00000002,0.00000001
 ,0.00000011,-0.00000022,-0.00000045,0.00000010,-0.00000046,-0.00000076
 ,-0.00000020,-0.00000005,0.00000005,-0.00000001,-0.00000010,0.00000009
 ,0.00000003,0.00000007,-0.00000021,0.00000041,0.00000006,-0.00000065,0
 .00000094,0.00000108,-0.00000051,0.00000006,-0.00000050,0.00000011,0.,
 -0.00000012,0.00000015,-0.00000003,0.00000005,-0.00001698,-0.00001597,
 -0.00000427,0.00000115,0.00000079,0.00000139,0.00000199,0.00000157,-0.
 00000219,0.00000089,0.00000234,-0.00000170,-0.11403761,-0.11538271,0.0
 2085309,-0.00227335,-0.00572962,-0.00046124,-0.00743734,-0.02004932,0.
 00597326,0.11281951,-0.00012055,0.00051434,-0.00011409,-0.00004066,0.0
 0011159,-0.00011892,-0.00000935,-0.00001031,0.00001006,0.00022370,-0.0
 0033096,0.00000435,0.00000995,0.00001514,0.00000738,-0.00004343,-0.000
 08750,0.00002218,0.00006527,-0.00004534,-0.00001098,-0.00001916,0.0000
 1854,0.00000210,-0.00051860,0.00030834,0.00069402,0.00000032,-0.000006
 37,-0.00000760,-0.00001072,-0.00001245,0.00000226,-0.00002218,-0.00003
 366,-0.00000210,0.00007165,-0.00019770,0.00093580,-0.00024622,-0.00026
 454,0.00003018,0.00050366,-0.00007235,-0.00118056,0.00001171,0.0000431
 2,0.00000551,-0.00001265,0.00000384,0.00000263,-0.00000802,-0.00000881
 ,0.00002421,0.00001170,-0.00000341,0.00000080,0.00000261,-0.00000154,-
 0.00000024,0.00000427,0.00000131,-0.00000030,0.00000297,0.00000202,-0.
 00000054,0.00000957,0.00000773,0.00000015,0.00000152,0.00000088,-0.000
 00003,-0.00004023,0.00003450,0.00002104,-0.00000135,-0.00000084,0.0000
 0172,0.00011308,0.00007454,0.00012170,0.00000793,0.00000650,-0.0000026
 6,0.00003982,0.00011459,-0.00017347,-0.00000644,0.00000260,-0.00000057
 ,0.00142177,-0.00077721,-0.00109185,-0.00021037,0.00005268,-0.00004002
 ,0.00001619,0.00000069,0.00001328,-0.00000108,-0.00000381,-0.00000105,
 0.00007663,-0.00004902,-0.00008199,0.00006167,0.00007927,-0.00002644,0
 .00000906,-0.00000965,-0.00000116,0.00000284,-0.00000177,0.00000044,-0
 .00002419,-0.00002167,-0.00001340,-0.00000056,-0.00000059,-0.00000290,
 0.00000078,-0.00001163,0.00003193,0.00000314,0.00000156,0.00000223,0.0
 0002654,0.00002500,0.00001037,-0.00380695,0.00099834,0.00789404,-0.000
 09092,-0.00017516,0.00020314,-0.00063754,0.00035859,0.00036739,0.00003
 626,0.00000829,-0.00004980,0.00001558,0.00002303,-0.00007417,0.0000036
 2,-0.00000279,-0.00000351,-0.00001014,0.00000339,-0.00005313,-0.000001
 85,-0.00000295,0.00000816,-0.00000100,0.00000419,-0.00001157,-0.000000
 28,-0.00000115,0.00000206,0.00024448,-0.00000145,-0.00167762,-0.000054
 64,0.00027391,-0.00038925,-0.00003795,0.00001199,0.00007035,-0.0000012
 8,0.00000265,-0.00000256,0.00001665,0.00001736,0.00000536,0.00000177,0
 .00000056,0.00000218,-0.00004616,-0.00001449,-0.00009969,0.00005380,-0
 .00006579,-0.00000781,0.00000275,-0.00000310,-0.00000317,-0.00000064,-
 0.00000344,0.00000006,-0.00000051,0.00000325,0.00000034,-0.00000444,0.
 00003320,-0.00010648,-0.00000083,0.00000133,-0.00000436,0.00000150,0.0
 0000226,0.00000208,-0.00000026,-0.00000035,-0.00000014,-0.00000066,0.0
 0000030,0.00000019,0.00000117,0.00000029,-0.00000097,0.00466480,-0.031
 78391,-0.00342450,0.00000252,-0.00000069,-0.00000089,0.00000042,0.0000
 0116,0.00000018,-0.00000036,0.00000008,0.00000086,-0.00000023,0.000000
 06,-0.00000031,0.00000147,-0.00000315,0.00000214,0.00000144,0.00000002
 ,-0.00000122,-0.00000049,0.00000006,-0.00000001,-0.00000031,0.00000025
 ,-0.00000002,0.00000152,0.00000295,-0.00000239,-0.00000052,0.00000028,
 0.00000003,-0.00000025,-0.00000035,0.00000061,0.00000135,-0.00000010,0
 .00000104,0.00000194,0.00000066,0.00000020,-0.00000020,0.,0.00000026,-
 0.00000022,0.,-0.00000030,0.00000063,-0.00000113,-0.00000014,0.0000015
 5,-0.00000255,-0.00000285,0.00000143,-0.00000025,0.00000130,-0.0000003
 1,0.00000005,0.00000023,-0.00000040,0.00000021,-0.00000005,0.00003748,
 0.00003710,0.00001123,-0.00000284,-0.00000176,-0.00000369,-0.00000404,
 -0.00000371,0.00000425,-0.00000207,-0.00000567,0.00000359,-0.10825472,
 -0.24963298,0.03608914,-0.00064491,0.00171632,-0.00017649,-0.00115826,
 0.00044186,0.00126865,0.10830950,0.27829527,-0.00000343,-0.00047486,-0
 .00004465,0.00000418,-0.00001865,0.00003363,0.00000408,0.00000238,0.00
 000238,-0.00009854,0.00015719,0.00002048,0.00001215,0.00000732,0.00000
 088,0.00002445,0.00005102,-0.00000288,0.00001957,0.00002862,0.00003003
 ,0.00000162,-0.00000108,-0.00000032,0.00006180,-0.00011845,-0.00015836
 ,-0.00000747,-0.00000651,-0.00000135,-0.00000556,-0.00000327,-0.000001
 76,0.00000893,0.00000395,-0.00000135,-0.00022599,0.00026795,0.00044914
 ,0.00020065,0.00020771,-0.00000506,-0.00044012,0.00045517,0.00011260,-
 0.00000503,-0.00001807,0.00000060,0.00000717,-0.00000237,-0.00000080,-
 0.00001328,-0.00000026,-0.00002621,-0.00000187,0.00000228,-0.00000203,
 -0.00000054,0.00000012,0.00000014,0.00000086,-0.00000158,-0.00000036,-
 0.00000009,-0.00000067,0.00000037,-0.00000176,-0.00000217,-0.00000083,
 -0.00000033,-0.00000015,0.00000045,-0.00001493,0.00002004,0.00001180,0
 .00000160,-0.00000008,0.00000007,-0.00008240,-0.00005679,-0.00009422,-
 0.00000316,0.00000018,0.00000497,-0.00002696,-0.00007944,0.00012019,0.
 00000290,0.00000034,0.00000069,0.00069954,-0.00039220,-0.00033123,-0.0
 0002444,-0.00000697,-0.00000761,0.00002945,-0.00001739,-0.00006069,-0.
 00000030,0.00000143,0.00000059,0.00001268,-0.00002424,0.00001299,-0.00
 003152,-0.00003714,0.00001295,-0.00000476,0.00000395,-0.00000157,-0.00
 000111,0.00000065,-0.00000083,0.00001612,0.00001485,0.00000923,-0.0000
 0053,0.00000019,0.00000146,0.00000011,0.00000749,-0.00002082,-0.000001
 83,-0.00000071,-0.00000100,-0.00001787,-0.00001748,-0.00000394,-0.0012
 3412,-0.00065959,0.00109632,0.00006478,0.00011732,-0.00012281,0.000920
 13,-0.00023444,-0.00034497,-0.00003997,-0.00002853,0.00000348,-0.00000
 107,0.00000745,-0.00001959,0.00000063,-0.00000048,-0.00000028,0.000009
 80,-0.00000104,0.00004012,0.00000101,0.00000190,-0.00000512,0.00000003
 ,-0.00000360,0.00000646,0.00000017,0.00000076,-0.00000093,-0.00090235,
 -0.00022306,0.00029363,-0.00001277,-0.00096337,-0.00183484,0.00000500,
 -0.00000494,-0.00000050,-0.00000015,0.00000051,-0.00000055,-0.00001016
 ,-0.00001051,-0.00000351,-0.00000098,-0.00000015,-0.00000091,0.0000224
 5,0.00000552,0.00005282,0.00000463,-0.00000702,0.00000124,0.00000058,0
 .00000012,-0.00000019,0.00000022,0.00000045,-0.00000030,-0.00000001,-0
 .00000112,0.00000017,0.00000570,-0.00001904,0.00006511,-0.00000041,-0.
 00000052,0.00000290,-0.00000021,-0.00000039,-0.00000021,0.00000003,0.0
 0000003,-0.00000016,0.00000012,-0.00000004,-0.00000009,-0.00000019,-0.
 00000008,0.00000017,-0.00184966,-0.00695630,0.00200538,-0.00000050,0.0
 0000016,0.00000059,-0.00000011,-0.00000021,-0.00000004,0.00000020,-0.0
 0000011,-0.00000016,0.00000004,0.00000004,-0.00000023,-0.00000052,0.00
 000107,-0.00000075,-0.00000044,-0.00000006,0.00000043,0.00000011,-0.00
 000006,0.,0.00000008,-0.00000003,0.00000002,-0.00000040,-0.00000055,0.
 00000078,0.00000006,-0.00000002,-0.00000007,0.00000003,0.00000008,-0.0
 0000029,-0.00000027,0.00000006,-0.00000025,-0.00000062,-0.00000023,-0.
 00000007,0.00000007,0.,-0.00000011,0.00000008,-0.00000002,0.00000013,-
 0.00000019,0.00000033,0.00000006,-0.00000046,0.00000087,0.00000094,-0.
 00000044,0.00000006,-0.00000042,0.00000011,0.,-0.00000007,0.00000009,-
 0.00000010,0.00000003,-0.00002025,-0.00001941,-0.00000547,0.00000149,0
 .00000087,0.00000198,0.00000196,0.00000204,-0.00000256,0.00000111,0.00
 000266,-0.00000221,0.02123499,0.03942388,-0.06124974,0.01314704,0.0254
 6094,-0.00034302,-0.00834075,-0.01692893,0.00443605,-0.02309975,-0.038
 91547,0.05587389\\0.00000242,-0.00000934,-0.00000377,-0.00000271,0.000
 00089,0.00000234,0.00000259,-0.00000359,-0.00000113,-0.00000623,0.0000
 0058,0.00000638,-0.00000203,-0.00000147,-0.00000037,0.00000124,-0.0000
 0602,-0.00000402,0.00000124,0.00000830,-0.00000561,0.00000168,0.000003
 73,0.00000161,-0.00000328,-0.00000296,0.00000273,-0.00000389,0.0000006
 3,0.00000209,-0.00000197,-0.00000002,0.00000161,-0.00000084,0.00000019
 ,-0.00000030,-0.00000093,0.00000056,0.00000676,0.00000432,-0.00000183,
 -0.00000035,-0.00000128,-0.00000199,0.00000353,0.00000259,-0.00000239,
 -0.00000218,0.00000421,-0.00000023,-0.00000165,-0.00000017,-0.00000018
 ,0.00000134,0.00000156,0.00000290,-0.00000168,0.00000181,0.00000448,-0
 .00000100,-0.00000419,0.00000173,0.00000096,-0.00000515,0.00000050,0.0
 0000122,-0.00000313,0.00000214,-0.00000255,-0.00000043,0.00000388,-0.0
 0000216,-0.00000090,0.00000117,-0.00000155,-0.00000024,0.00000196,-0.0
 0000003,0.00000242,-0.00000208,0.00000021,0.00000029,-0.00000214,0.000
 00080,-0.00000079,-0.00000940,0.00000533,0.00000393,0.00000388,-0.0000
 0129,0.00000095,-0.00000651,-0.00000096,-0.00000104,-0.00000399,0.0000
 0221,0.00000088,0.00000384,0.00000153,-0.00000262,0.00000214,0.0000036
 7,-0.00000220,0.00000175,0.00000199,0.00000318,-0.00000514,-0.00000079
 ,0.00000229,0.00000178,-0.00000076,0.00000473,0.00000210,-0.00000312,0
 .00000132,-0.00000347,-0.00000092,0.00000032,-0.00000199,-0.00000085,0
 .00000087,-0.00000207,0.00000039,0.00000043,-0.00000119,-0.00000020,0.
 00000318,-0.00000372,-0.00000025,-0.00000460,-0.00000425,0.00000103,0.
 00000490,-0.00000644,0.00000057,-0.00000335,-0.00000605,0.00000150,-0.
 00000487,-0.00000299,0.00000257,-0.00000096,0.00000271,-0.00000004,0.0
 0000010,0.00000429,-0.00000138,0.00000598,-0.00000247,-0.00000021,0.00
 000401,-0.00000642,-0.00000071,0.00000321,-0.00000390,-0.00000161,0.00
 000421,-0.00000409,0.00000005,-0.00000359,-0.00000441,0.00000258,-0.00
 000427,-0.00000677,0.00000438,-0.00000337,0.00000277,0.00000077,-0.000
 00469,0.00000245,0.00000168,0.00000280,-0.00000286,-0.00000014,0.00000
 255,-0.00000293,-0.00000043,-0.00000132,-0.00000125,-0.00000102,-0.000
 00246,0.00000345,0.,-0.00000218,0.00000446,-0.00000005,-0.00000386,0.0
 0000464,-0.00000137,0.00000407,0.00000528,-0.00000872,0.00000232,-0.00
 000472,-0.00000061,0.00000452,-0.00000539,-0.00000045,-0.00000475,0.00
 000594,0.00000168,-0.00000458,0.00000536,0.00000074,-0.00000358,0.0000
 0521,0.00000048,-0.00000467,0.00000657,0.00000053,-0.00000227,-0.00000
 800,0.00000485,-0.00000459,0.00000396,0.00000171,-0.00000600,0.0000048
 2,0.00000177,-0.00000508,0.00000267,0.00000182,-0.00000613,0.00000350,
 0.00000203,0.00000218,0.00000428,-0.00000050,0.00000375,0.00000768,-0.
 00000377,0.00000255,0.00000657,-0.00000348,0.00000285,0.00000611,-0.00
 000334,-0.00000257,0.00000440,0.00000087,-0.00000144,0.00000486,-0.000
 00026,-0.00000271,0.00000323,0.00000039,-0.00000362,0.00000537,0.00000
 020,0.00000549,0.00000406,-0.00000480,0.00000545,0.00000440,-0.0000038
 9,0.00000632,0.00000298,-0.00000402,0.00000602,0.00000543,-0.00000427,
 0.00000390,0.00000530,0.00000002,0.00000458,0.00000537,-0.00000411,0.0
 0000470,0.00000342,-0.00000366,0.00000225,0.00000561,-0.00000434,0.000
 00392,-0.00000573,-0.00000127,0.00000298,-0.00000482,-0.00000014,0.000
 00284,-0.00000571,0.00000017,0.00000370,-0.00000412,-0.00000067,-0.000
 00362,-0.00000695,0.00000515,-0.00000309,-0.00000897,0.00000379,-0.000
 00369,-0.00000797,0.00000447,-0.00000468,-0.00000734,0.00000424\\\@
 The archive entry for this job was punched.


 EXPERIENCE IS THE FRUIT OF THE TREE OF ERRORS.
 Job cpu time:       5 days 16 hours 43 minutes 18.2 seconds.
 Elapsed time:       0 days  4 hours 39 minutes  8.7 seconds.
 File lengths (MBytes):  RWF=  17485 Int=      0 D2E=      0 Chk=    114 Scr=      1
 Normal termination of Gaussian 16 at Fri Aug 29 08:25:59 2025.
