 Entering Gaussian System, Link 0=g16
 Input=C4-2.gau
 Output=C4-2.log
 Initial command:
 /apps/gaussian/g16c01/g16/l1.exe "/jobfs/148179128.gadi-pbs/Gau-1213206.inp" -scrdir="/jobfs/148179128.gadi-pbs/"
 Default is to use a total of  30 processors:
                               30 via shared-memory
                                1 via Linda
 Entering Link 1 = /apps/gaussian/g16c01/g16/l1.exe PID=   1213207.
  
 Copyright (c) 1988-2019, Gaussian, Inc.  All Rights Reserved.
  
 This is part of the Gaussian(R) 16 program.  It is based on
 the Gaussian(R) 09 system (copyright 2009, Gaussian, Inc.),
 the Gaussian(R) 03 system (copyright 2003, Gaussian, Inc.),
 the Gaussian(R) 98 system (copyright 1998, Gaussian, Inc.),
 the Gaussian(R) 94 system (copyright 1995, Gaussian, Inc.),
 the Gaussian 92(TM) system (copyright 1992, Gaussian, Inc.),
 the Gaussian 90(TM) system (copyright 1990, Gaussian, Inc.),
 the Gaussian 88(TM) system (copyright 1988, Gaussian, Inc.),
 the Gaussian 86(TM) system (copyright 1986, Carnegie Mellon
 University), and the Gaussian 82(TM) system (copyright 1983,
 Carnegie Mellon University). Gaussian is a federally registered
 trademark of Gaussian, Inc.
  
 This software contains proprietary and confidential information,
 including trade secrets, belonging to Gaussian, Inc.
  
 This software is provided under written license and may be
 used, copied, transmitted, or stored only in accord with that
 written license.
  
 The following legend is applicable only to US Government
 contracts under FAR:
  
                    RESTRICTED RIGHTS LEGEND
  
 Use, reproduction and disclosure by the US Government is
 subject to restrictions as set forth in subparagraphs (a)
 and (c) of the Commercial Computer Software - Restricted
 Rights clause in FAR 52.227-19.
  
 Gaussian, Inc.
 340 Quinnipiac St., Bldg. 40, Wallingford CT 06492
  
  
 ---------------------------------------------------------------
 Warning -- This program may not be used in any manner that
 competes with the business of Gaussian, Inc. or will provide
 assistance to any competitor of Gaussian, Inc.  The licensee
 of this program is prohibited from giving any competitor of
 Gaussian, Inc. access to this program.  By using this program,
 the user acknowledges that Gaussian, Inc. is engaged in the
 business of creating and licensing software in the field of
 computational chemistry and represents and warrants to the
 licensee that it is not a competitor of Gaussian, Inc. and that
 it will not use this program in any manner prohibited above.
 ---------------------------------------------------------------
  

 Cite this work as:
 Gaussian 16, Revision C.01,
 M. J. Frisch, G. W. Trucks, H. B. Schlegel, G. E. Scuseria, 
 M. A. Robb, J. R. Cheeseman, G. Scalmani, V. Barone, 
 G. A. Petersson, H. Nakatsuji, X. Li, M. Caricato, A. V. Marenich, 
 J. Bloino, B. G. Janesko, R. Gomperts, B. Mennucci, H. P. Hratchian, 
 J. V. Ortiz, A. F. Izmaylov, J. L. Sonnenberg, D. Williams-Young, 
 F. Ding, F. Lipparini, F. Egidi, J. Goings, B. Peng, A. Petrone, 
 T. Henderson, D. Ranasinghe, V. G. Zakrzewski, J. Gao, N. Rega, 
 G. Zheng, W. Liang, M. Hada, M. Ehara, K. Toyota, R. Fukuda, 
 J. Hasegawa, M. Ishida, T. Nakajima, Y. Honda, O. Kitao, H. Nakai, 
 T. Vreven, K. Throssell, J. A. Montgomery, Jr., J. E. Peralta, 
 F. Ogliaro, M. J. Bearpark, J. J. Heyd, E. N. Brothers, K. N. Kudin, 
 V. N. Staroverov, T. A. Keith, R. Kobayashi, J. Normand, 
 K. Raghavachari, A. P. Rendell, J. C. Burant, S. S. Iyengar, 
 J. Tomasi, M. Cossi, J. M. Millam, M. Klene, C. Adamo, R. Cammi, 
 J. W. Ochterski, R. L. Martin, K. Morokuma, O. Farkas, 
 J. B. Foresman, and D. J. Fox, Gaussian, Inc., Wallingford CT, 2019.
 
 ******************************************
 Gaussian 16:  ES64L-G16RevC.01  3-Jul-2019
                29-Aug-2025 
 ******************************************
 %chk=C4-2.chk
 Default route: Maxdisk=0MB
 ----------------------------------------------------------------------
 # opt(maxcycles=500,maxstep=5) freq scf(maxcycle=500) Int(SuperFine) u
 wb97xd/Def2SVPP scrf=(smd,solvent=Acetonitrile)
 ----------------------------------------------------------------------
 1/6=500,8=5,18=20,19=15,26=6,38=1/1,3;
 2/9=110,12=2,17=6,18=5,40=1/2;
 3/5=43,7=202,11=2,25=1,30=1,70=32201,71=1,72=2,74=-58,75=-7,116=2/1,2,3;
 4//1;
 5/5=2,7=500,38=5,53=2/2;
 6/7=2,8=2,9=2,10=2,28=1/1;
 7//1,2,3,16;
 1/6=500,8=5,18=20,19=15,26=6/3(2);
 2/9=110/2;
 99//99;
 2/9=110/2;
 3/5=43,7=202,11=2,25=1,30=1,70=32205,71=1,72=2,74=-58,75=-7,116=2/1,2,3;
 4/5=5,16=3,69=1/1;
 5/5=2,7=500,38=5,53=2/2;
 7//1,2,3,16;
 1/6=500,8=5,18=20,19=15,26=6/3(-5);
 2/9=110/2;
 6/7=2,8=2,9=2,10=2,19=2,28=1/1;
 99/9=1/99;
 ----------
 OPT + Freq
 ----------
 Symbolic Z-matrix:
 Charge =  2 Multiplicity = 2
 Ir                    0.71859  -0.0328    0.01201 
 S                     1.48688   2.53895   3.64444 
 S                     1.98216  -2.48533  -3.56251 
 N                     0.72969   0.77038   1.95174 
 N                    -1.06168   1.29463  -0.22165 
 N                     0.93853  -0.8106   -1.91874 
 N                    -1.07046  -1.35353   0.06511 
 C                    -2.2752    0.71386  -0.15386 
 C                     1.52376   1.81717   2.07738 
 C                    -0.9866    2.62163  -0.35909 
 H                     0.02289   3.05449  -0.4127 
 C                    -2.27949  -0.76583   0.00799 
 C                     2.05112   1.43765  -0.23504 
 C                     2.1497   -1.37401   0.34703 
 C                     2.28252   2.23493   0.92676 
 C                    -0.99411  -2.68347   0.17068 
 H                     0.00586  -3.11692   0.21491 
 C                     0.31228  -0.55404  -3.13162 
 C                    -3.44248  -1.51461   0.11406 
 H                    -4.41798  -1.016     0.11099 
 C                    -2.10961   3.43598  -0.44025 
 H                    -1.94908   4.50957  -0.54243 
 C                    -3.4365    1.47505  -0.26268 
 H                    -4.41323   0.97981  -0.26376 
 C                    -0.83463  -0.61938   3.32679 
 H                    -1.03676  -1.32659   2.52429 
 C                     2.75347  -1.64917   1.57895 
 H                     2.48879  -1.0922    2.48458 
 C                     2.53625  -2.14417  -0.79596 
 C                    -3.39127  -2.91064   0.22258 
 C                     2.7064    1.75913  -1.42228 
 H                     2.55347   1.18531  -2.33292 
 C                     0.0417    0.45311   3.11829 
 C                    -3.38227   2.86926  -0.40013 
 C                     0.33566   1.33963   4.16202 
 C                     1.82887  -1.78334  -1.9943 
 C                    -2.11994  -3.49466   0.24512 
 H                    -1.97371  -4.57101   0.32413 
 C                    -0.65151   0.43359  -3.4007 
 H                    -0.99023   1.10563  -2.61216 
 C                    -1.15208   0.52751  -4.69133 
 H                    -1.90528   1.28508  -4.91283 
 C                     0.76226  -1.38761  -4.16623 
 C                     3.59526   2.8562   -1.4705 
 C                     3.72578  -2.65331   1.69059 
 C                     3.17079   3.30826   0.87861 
 H                     3.35359   3.91948   1.75849 
 C                    -1.42096  -0.75164   4.57794 
 H                    -2.1161   -1.58467   4.75329 
 C                     3.50795  -3.13551  -0.68499 
 H                     3.81593  -3.7252   -1.5467 
 C                     0.25999  -1.29288  -5.4666 
 H                     0.61577  -1.95095  -6.25472 
 C                     3.82641   3.62811  -0.31153 
 H                     4.51365   4.47497  -0.32714 
 C                    -0.26272   1.20598   5.42255 
 H                    -0.02984   1.89777   6.23701 
 C                    -0.70534  -0.32818  -5.71524 
 H                    -1.11738  -0.22865  -6.72383 
 O                     4.24361  -2.83726   2.90694 
 C                    -1.14328   0.14823   5.6105 
 H                    -1.62036   0.01709   6.58662 
 C                    -4.6734    3.68637  -0.48547 
 C                    -4.68612  -3.72202   0.30794 
 C                     4.10183  -3.39912   0.54962 
 H                     4.85692  -4.18301   0.61513 
 C                    -5.47784   3.45244   0.81294 
 H                    -4.90278   3.77165   1.70001 
 H                    -5.75415   2.39364   0.94603 
 H                    -6.40963   4.0449    0.77789 
 O                     4.17609   3.08421  -2.64119 
 C                    -4.38798   5.18598  -0.62792 
 H                    -5.34603   5.73316  -0.68969 
 H                    -3.82609   5.40617  -1.54991 
 H                    -3.83322   5.58752   0.23103 
 C                    -5.48725  -3.26609   1.54183 
 H                    -6.4225   -3.85109   1.62054 
 H                    -5.76212  -2.19988   1.47674 
 H                    -4.90919  -3.41566   2.46904 
 C                    -5.49005   3.20828  -1.69322 
 H                    -5.76966   2.14474  -1.62041 
 H                    -4.9217    3.34202  -2.63831 
 H                    -6.42274   3.79754  -1.76984 
 C                    -4.4171   -5.2251    0.42617 
 H                    -3.83667  -5.47145   1.33934 
 H                    -3.86339  -5.61775  -0.44466 
 H                    -5.37789  -5.76736   0.49032 
 C                    -5.51405  -3.46516  -0.9784 
 H                    -6.44824  -4.0538   -0.94153 
 H                    -4.9502   -3.77383  -1.87693 
 H                    -5.78788  -2.40334  -1.08256 
 C                     5.24135  -3.82771   3.11093 
 H                     5.50185  -3.78074   4.17722 
 H                     6.1334   -3.62079   2.50517 
 H                     4.85207  -4.83625   2.8751 
 C                     5.0861    4.15648  -2.78292 
 H                     5.42069   4.13496  -3.82945 
 H                     5.95992   4.03742  -2.11819 
 H                     4.59692   5.12697  -2.57654 
 

 GradGradGradGradGradGradGradGradGradGradGradGradGradGradGradGradGradGrad
 Berny optimization.
 Initialization pass.
                           ----------------------------
                           !    Initial Parameters    !
                           ! (Angstroms and Degrees)  !
 --------------------------                            --------------------------
 ! Name  Definition              Value          Derivative Info.                !
 --------------------------------------------------------------------------------
 ! R1    R(1,4)                  2.0995         estimate D2E/DX2                !
 ! R2    R(1,5)                  2.2329         estimate D2E/DX2                !
 ! R3    R(1,6)                  2.0931         estimate D2E/DX2                !
 ! R4    R(1,7)                  2.2244         estimate D2E/DX2                !
 ! R5    R(1,13)                 1.9997         estimate D2E/DX2                !
 ! R6    R(1,14)                 1.9898         estimate D2E/DX2                !
 ! R7    R(2,9)                  1.7257         estimate D2E/DX2                !
 ! R8    R(2,35)                 1.7411         estimate D2E/DX2                !
 ! R9    R(3,36)                 1.725          estimate D2E/DX2                !
 ! R10   R(3,43)                 1.7486         estimate D2E/DX2                !
 ! R11   R(4,9)                  1.3199         estimate D2E/DX2                !
 ! R12   R(4,33)                 1.391          estimate D2E/DX2                !
 ! R13   R(5,8)                  1.347          estimate D2E/DX2                !
 ! R14   R(5,10)                 1.3362         estimate D2E/DX2                !
 ! R15   R(6,18)                 1.3889         estimate D2E/DX2                !
 ! R16   R(6,36)                 1.3208         estimate D2E/DX2                !
 ! R17   R(7,12)                 1.3455         estimate D2E/DX2                !
 ! R18   R(7,16)                 1.3363         estimate D2E/DX2                !
 ! R19   R(8,12)                 1.4885         estimate D2E/DX2                !
 ! R20   R(8,23)                 1.3928         estimate D2E/DX2                !
 ! R21   R(9,15)                 1.4402         estimate D2E/DX2                !
 ! R22   R(10,11)                1.0997         estimate D2E/DX2                !
 ! R23   R(10,21)                1.3896         estimate D2E/DX2                !
 ! R24   R(12,19)                1.3873         estimate D2E/DX2                !
 ! R25   R(13,15)                1.4279         estimate D2E/DX2                !
 ! R26   R(13,31)                1.3937         estimate D2E/DX2                !
 ! R27   R(14,27)                1.3992         estimate D2E/DX2                !
 ! R28   R(14,29)                1.4314         estimate D2E/DX2                !
 ! R29   R(15,46)                1.394          estimate D2E/DX2                !
 ! R30   R(16,17)                1.0908         estimate D2E/DX2                !
 ! R31   R(16,37)                1.3896         estimate D2E/DX2                !
 ! R32   R(18,39)                1.406          estimate D2E/DX2                !
 ! R33   R(18,43)                1.4028         estimate D2E/DX2                !
 ! R34   R(19,20)                1.0955         estimate D2E/DX2                !
 ! R35   R(19,30)                1.4012         estimate D2E/DX2                !
 ! R36   R(21,22)                1.0903         estimate D2E/DX2                !
 ! R37   R(21,34)                1.3937         estimate D2E/DX2                !
 ! R38   R(23,24)                1.0951         estimate D2E/DX2                !
 ! R39   R(23,34)                1.402          estimate D2E/DX2                !
 ! R40   R(25,26)                1.0886         estimate D2E/DX2                !
 ! R41   R(25,33)                1.4006         estimate D2E/DX2                !
 ! R42   R(25,48)                1.388          estimate D2E/DX2                !
 ! R43   R(27,28)                1.0956         estimate D2E/DX2                !
 ! R44   R(27,45)                1.4022         estimate D2E/DX2                !
 ! R45   R(29,36)                1.4376         estimate D2E/DX2                !
 ! R46   R(29,50)                1.3926         estimate D2E/DX2                !
 ! R47   R(30,37)                1.3992         estimate D2E/DX2                !
 ! R48   R(30,64)                1.5304         estimate D2E/DX2                !
 ! R49   R(31,32)                1.0872         estimate D2E/DX2                !
 ! R50   R(31,44)                1.4128         estimate D2E/DX2                !
 ! R51   R(33,35)                1.4006         estimate D2E/DX2                !
 ! R52   R(34,63)                1.5303         estimate D2E/DX2                !
 ! R53   R(35,56)                1.4017         estimate D2E/DX2                !
 ! R54   R(37,38)                1.0891         estimate D2E/DX2                !
 ! R55   R(39,40)                1.09           estimate D2E/DX2                !
 ! R56   R(39,41)                1.3875         estimate D2E/DX2                !
 ! R57   R(41,42)                1.091          estimate D2E/DX2                !
 ! R58   R(41,58)                1.4072         estimate D2E/DX2                !
 ! R59   R(43,52)                1.3972         estimate D2E/DX2                !
 ! R60   R(44,54)                1.4116         estimate D2E/DX2                !
 ! R61   R(44,71)                1.3266         estimate D2E/DX2                !
 ! R62   R(45,60)                1.3347         estimate D2E/DX2                !
 ! R63   R(45,65)                1.414          estimate D2E/DX2                !
 ! R64   R(46,47)                1.0868         estimate D2E/DX2                !
 ! R65   R(46,54)                1.3959         estimate D2E/DX2                !
 ! R66   R(48,49)                1.099          estimate D2E/DX2                !
 ! R67   R(48,61)                1.3975         estimate D2E/DX2                !
 ! R68   R(50,51)                1.0886         estimate D2E/DX2                !
 ! R69   R(50,65)                1.3951         estimate D2E/DX2                !
 ! R70   R(52,53)                1.0866         estimate D2E/DX2                !
 ! R71   R(52,58)                1.3872         estimate D2E/DX2                !
 ! R72   R(54,55)                1.0907         estimate D2E/DX2                !
 ! R73   R(56,57)                1.0937         estimate D2E/DX2                !
 ! R74   R(56,61)                1.3891         estimate D2E/DX2                !
 ! R75   R(58,59)                1.094          estimate D2E/DX2                !
 ! R76   R(60,92)                1.4206         estimate D2E/DX2                !
 ! R77   R(61,62)                1.0943         estimate D2E/DX2                !
 ! R78   R(63,67)                1.5452         estimate D2E/DX2                !
 ! R79   R(63,72)                1.5332         estimate D2E/DX2                !
 ! R80   R(63,80)                1.5343         estimate D2E/DX2                !
 ! R81   R(64,76)                1.5402         estimate D2E/DX2                !
 ! R82   R(64,84)                1.5315         estimate D2E/DX2                !
 ! R83   R(64,88)                1.5512         estimate D2E/DX2                !
 ! R84   R(65,66)                1.0904         estimate D2E/DX2                !
 ! R85   R(67,68)                1.1043         estimate D2E/DX2                !
 ! R86   R(67,69)                1.1023         estimate D2E/DX2                !
 ! R87   R(67,70)                1.1048         estimate D2E/DX2                !
 ! R88   R(71,96)                1.4135         estimate D2E/DX2                !
 ! R89   R(72,73)                1.105          estimate D2E/DX2                !
 ! R90   R(72,74)                1.1019         estimate D2E/DX2                !
 ! R91   R(72,75)                1.0985         estimate D2E/DX2                !
 ! R92   R(76,77)                1.1059         estimate D2E/DX2                !
 ! R93   R(76,78)                1.103          estimate D2E/DX2                !
 ! R94   R(76,79)                1.1028         estimate D2E/DX2                !
 ! R95   R(80,81)                1.1021         estimate D2E/DX2                !
 ! R96   R(80,82)                1.1109         estimate D2E/DX2                !
 ! R97   R(80,83)                1.1059         estimate D2E/DX2                !
 ! R98   R(84,85)                1.1097         estimate D2E/DX2                !
 ! R99   R(84,86)                1.1041         estimate D2E/DX2                !
 ! R100  R(84,87)                1.1051         estimate D2E/DX2                !
 ! R101  R(88,89)                1.1048         estimate D2E/DX2                !
 ! R102  R(88,90)                1.1048         estimate D2E/DX2                !
 ! R103  R(88,91)                1.1015         estimate D2E/DX2                !
 ! R104  R(92,93)                1.0986         estimate D2E/DX2                !
 ! R105  R(92,94)                1.098          estimate D2E/DX2                !
 ! R106  R(92,95)                1.1065         estimate D2E/DX2                !
 ! R107  R(96,97)                1.0989         estimate D2E/DX2                !
 ! R108  R(96,98)                1.1044         estimate D2E/DX2                !
 ! R109  R(96,99)                1.1062         estimate D2E/DX2                !
 ! A1    A(4,1,5)               82.731          estimate D2E/DX2                !
 ! A2    A(4,1,7)              102.0838         estimate D2E/DX2                !
 ! A3    A(4,1,13)              80.1723         estimate D2E/DX2                !
 ! A4    A(4,1,14)              95.6532         estimate D2E/DX2                !
 ! A5    A(5,1,6)              102.0144         estimate D2E/DX2                !
 ! A6    A(5,1,7)               73.3948         estimate D2E/DX2                !
 ! A7    A(5,1,13)              94.6581         estimate D2E/DX2                !
 ! A8    A(6,1,7)               83.448          estimate D2E/DX2                !
 ! A9    A(6,1,13)              95.1216         estimate D2E/DX2                !
 ! A10   A(6,1,14)              80.1688         estimate D2E/DX2                !
 ! A11   A(7,1,14)             100.0343         estimate D2E/DX2                !
 ! A12   A(13,1,14)             92.1309         estimate D2E/DX2                !
 ! A13   A(9,2,35)              89.769          estimate D2E/DX2                !
 ! A14   A(36,3,43)             89.7943         estimate D2E/DX2                !
 ! A15   A(1,4,9)              113.2367         estimate D2E/DX2                !
 ! A16   A(1,4,33)             133.2335         estimate D2E/DX2                !
 ! A17   A(9,4,33)             113.4926         estimate D2E/DX2                !
 ! A18   A(1,5,8)              117.1728         estimate D2E/DX2                !
 ! A19   A(1,5,10)             123.803          estimate D2E/DX2                !
 ! A20   A(8,5,10)             118.9454         estimate D2E/DX2                !
 ! A21   A(1,6,18)             133.5898         estimate D2E/DX2                !
 ! A22   A(1,6,36)             113.4075         estimate D2E/DX2                !
 ! A23   A(18,6,36)            112.9553         estimate D2E/DX2                !
 ! A24   A(1,7,12)             117.5388         estimate D2E/DX2                !
 ! A25   A(1,7,16)             123.1512         estimate D2E/DX2                !
 ! A26   A(12,7,16)            119.3017         estimate D2E/DX2                !
 ! A27   A(5,8,12)             115.8906         estimate D2E/DX2                !
 ! A28   A(5,8,23)             120.769          estimate D2E/DX2                !
 ! A29   A(12,8,23)            123.3243         estimate D2E/DX2                !
 ! A30   A(2,9,4)              113.9095         estimate D2E/DX2                !
 ! A31   A(2,9,15)             127.9831         estimate D2E/DX2                !
 ! A32   A(4,9,15)             118.097          estimate D2E/DX2                !
 ! A33   A(5,10,11)            116.584          estimate D2E/DX2                !
 ! A34   A(5,10,21)            122.8606         estimate D2E/DX2                !
 ! A35   A(11,10,21)           120.5545         estimate D2E/DX2                !
 ! A36   A(7,12,8)             115.8634         estimate D2E/DX2                !
 ! A37   A(7,12,19)            120.9505         estimate D2E/DX2                !
 ! A38   A(8,12,19)            123.1806         estimate D2E/DX2                !
 ! A39   A(1,13,15)            114.7107         estimate D2E/DX2                !
 ! A40   A(1,13,31)            126.0277         estimate D2E/DX2                !
 ! A41   A(15,13,31)           119.2175         estimate D2E/DX2                !
 ! A42   A(1,14,27)            126.2376         estimate D2E/DX2                !
 ! A43   A(1,14,29)            114.9894         estimate D2E/DX2                !
 ! A44   A(27,14,29)           118.73           estimate D2E/DX2                !
 ! A45   A(9,15,13)            113.7467         estimate D2E/DX2                !
 ! A46   A(9,15,46)            125.9185         estimate D2E/DX2                !
 ! A47   A(13,15,46)           120.3343         estimate D2E/DX2                !
 ! A48   A(7,16,17)            116.8129         estimate D2E/DX2                !
 ! A49   A(7,16,37)            122.6089         estimate D2E/DX2                !
 ! A50   A(17,16,37)           120.5696         estimate D2E/DX2                !
 ! A51   A(6,18,39)            127.2995         estimate D2E/DX2                !
 ! A52   A(6,18,43)            112.9335         estimate D2E/DX2                !
 ! A53   A(39,18,43)           119.7467         estimate D2E/DX2                !
 ! A54   A(12,19,20)           120.0403         estimate D2E/DX2                !
 ! A55   A(12,19,30)           120.8673         estimate D2E/DX2                !
 ! A56   A(20,19,30)           119.0922         estimate D2E/DX2                !
 ! A57   A(10,21,22)           117.6151         estimate D2E/DX2                !
 ! A58   A(10,21,34)           119.8677         estimate D2E/DX2                !
 ! A59   A(22,21,34)           122.5153         estimate D2E/DX2                !
 ! A60   A(8,23,24)            119.7739         estimate D2E/DX2                !
 ! A61   A(8,23,34)            121.2576         estimate D2E/DX2                !
 ! A62   A(24,23,34)           118.9547         estimate D2E/DX2                !
 ! A63   A(26,25,33)           120.2588         estimate D2E/DX2                !
 ! A64   A(26,25,48)           121.6116         estimate D2E/DX2                !
 ! A65   A(33,25,48)           118.1282         estimate D2E/DX2                !
 ! A66   A(14,27,28)           121.5688         estimate D2E/DX2                !
 ! A67   A(14,27,45)           120.6721         estimate D2E/DX2                !
 ! A68   A(28,27,45)           117.759          estimate D2E/DX2                !
 ! A69   A(14,29,36)           113.4339         estimate D2E/DX2                !
 ! A70   A(14,29,50)           120.5184         estimate D2E/DX2                !
 ! A71   A(36,29,50)           126.0473         estimate D2E/DX2                !
 ! A72   A(19,30,37)           116.7638         estimate D2E/DX2                !
 ! A73   A(19,30,64)           120.1062         estimate D2E/DX2                !
 ! A74   A(37,30,64)           123.1299         estimate D2E/DX2                !
 ! A75   A(13,31,32)           121.7136         estimate D2E/DX2                !
 ! A76   A(13,31,44)           120.2663         estimate D2E/DX2                !
 ! A77   A(32,31,44)           118.02           estimate D2E/DX2                !
 ! A78   A(4,33,25)            127.5151         estimate D2E/DX2                !
 ! A79   A(4,33,35)            112.1347         estimate D2E/DX2                !
 ! A80   A(25,33,35)           120.3355         estimate D2E/DX2                !
 ! A81   A(21,34,23)           116.2636         estimate D2E/DX2                !
 ! A82   A(21,34,63)           123.4828         estimate D2E/DX2                !
 ! A83   A(23,34,63)           120.2515         estimate D2E/DX2                !
 ! A84   A(2,35,33)            110.6855         estimate D2E/DX2                !
 ! A85   A(2,35,56)            127.9696         estimate D2E/DX2                !
 ! A86   A(33,35,56)           121.3449         estimate D2E/DX2                !
 ! A87   A(3,36,6)             114.3064         estimate D2E/DX2                !
 ! A88   A(3,36,29)            127.7311         estimate D2E/DX2                !
 ! A89   A(6,36,29)            117.9591         estimate D2E/DX2                !
 ! A90   A(16,37,30)           119.4454         estimate D2E/DX2                !
 ! A91   A(16,37,38)           118.1654         estimate D2E/DX2                !
 ! A92   A(30,37,38)           122.3886         estimate D2E/DX2                !
 ! A93   A(18,39,40)           120.5077         estimate D2E/DX2                !
 ! A94   A(18,39,41)           118.2222         estimate D2E/DX2                !
 ! A95   A(40,39,41)           121.2699         estimate D2E/DX2                !
 ! A96   A(39,41,42)           119.0077         estimate D2E/DX2                !
 ! A97   A(39,41,58)           121.4086         estimate D2E/DX2                !
 ! A98   A(42,41,58)           119.5833         estimate D2E/DX2                !
 ! A99   A(3,43,18)            110.01           estimate D2E/DX2                !
 ! A100  A(3,43,52)            127.9283         estimate D2E/DX2                !
 ! A101  A(18,43,52)           122.0617         estimate D2E/DX2                !
 ! A102  A(31,44,54)           119.9768         estimate D2E/DX2                !
 ! A103  A(31,44,71)           116.0433         estimate D2E/DX2                !
 ! A104  A(54,44,71)           123.9783         estimate D2E/DX2                !
 ! A105  A(27,45,60)           116.121          estimate D2E/DX2                !
 ! A106  A(27,45,65)           119.86           estimate D2E/DX2                !
 ! A107  A(60,45,65)           124.0189         estimate D2E/DX2                !
 ! A108  A(15,46,47)           120.811          estimate D2E/DX2                !
 ! A109  A(15,46,54)           120.3406         estimate D2E/DX2                !
 ! A110  A(47,46,54)           118.8412         estimate D2E/DX2                !
 ! A111  A(25,48,49)           118.8952         estimate D2E/DX2                !
 ! A112  A(25,48,61)           121.3793         estimate D2E/DX2                !
 ! A113  A(49,48,61)           119.7255         estimate D2E/DX2                !
 ! A114  A(29,50,51)           121.3276         estimate D2E/DX2                !
 ! A115  A(29,50,65)           120.1356         estimate D2E/DX2                !
 ! A116  A(51,50,65)           118.5349         estimate D2E/DX2                !
 ! A117  A(43,52,53)           121.082          estimate D2E/DX2                !
 ! A118  A(43,52,58)           117.6528         estimate D2E/DX2                !
 ! A119  A(53,52,58)           121.2651         estimate D2E/DX2                !
 ! A120  A(44,54,46)           119.8555         estimate D2E/DX2                !
 ! A121  A(44,54,55)           121.0646         estimate D2E/DX2                !
 ! A122  A(46,54,55)           119.0798         estimate D2E/DX2                !
 ! A123  A(35,56,57)           121.2301         estimate D2E/DX2                !
 ! A124  A(35,56,61)           117.7031         estimate D2E/DX2                !
 ! A125  A(57,56,61)           121.0554         estimate D2E/DX2                !
 ! A126  A(41,58,52)           120.8897         estimate D2E/DX2                !
 ! A127  A(41,58,59)           119.7299         estimate D2E/DX2                !
 ! A128  A(52,58,59)           119.3788         estimate D2E/DX2                !
 ! A129  A(45,60,92)           119.9625         estimate D2E/DX2                !
 ! A130  A(48,61,56)           121.0844         estimate D2E/DX2                !
 ! A131  A(48,61,62)           119.686          estimate D2E/DX2                !
 ! A132  A(56,61,62)           119.2284         estimate D2E/DX2                !
 ! A133  A(34,63,67)           108.1516         estimate D2E/DX2                !
 ! A134  A(34,63,72)           111.7386         estimate D2E/DX2                !
 ! A135  A(34,63,80)           109.0611         estimate D2E/DX2                !
 ! A136  A(67,63,72)           108.8485         estimate D2E/DX2                !
 ! A137  A(67,63,80)           109.7039         estimate D2E/DX2                !
 ! A138  A(72,63,80)           109.3127         estimate D2E/DX2                !
 ! A139  A(30,64,76)           109.137          estimate D2E/DX2                !
 ! A140  A(30,64,84)           112.0863         estimate D2E/DX2                !
 ! A141  A(30,64,88)           108.5145         estimate D2E/DX2                !
 ! A142  A(76,64,84)           108.6657         estimate D2E/DX2                !
 ! A143  A(76,64,88)           109.737          estimate D2E/DX2                !
 ! A144  A(84,64,88)           108.6799         estimate D2E/DX2                !
 ! A145  A(45,65,50)           120.0782         estimate D2E/DX2                !
 ! A146  A(45,65,66)           120.9887         estimate D2E/DX2                !
 ! A147  A(50,65,66)           118.9329         estimate D2E/DX2                !
 ! A148  A(63,67,68)           111.1073         estimate D2E/DX2                !
 ! A149  A(63,67,69)           112.1702         estimate D2E/DX2                !
 ! A150  A(63,67,70)           109.344          estimate D2E/DX2                !
 ! A151  A(68,67,69)           108.1318         estimate D2E/DX2                !
 ! A152  A(68,67,70)           108.0404         estimate D2E/DX2                !
 ! A153  A(69,67,70)           107.9098         estimate D2E/DX2                !
 ! A154  A(44,71,96)           120.0494         estimate D2E/DX2                !
 ! A155  A(63,72,73)           109.1555         estimate D2E/DX2                !
 ! A156  A(63,72,74)           111.5991         estimate D2E/DX2                !
 ! A157  A(63,72,75)           112.2648         estimate D2E/DX2                !
 ! A158  A(73,72,74)           107.2399         estimate D2E/DX2                !
 ! A159  A(73,72,75)           107.4901         estimate D2E/DX2                !
 ! A160  A(74,72,75)           108.8851         estimate D2E/DX2                !
 ! A161  A(64,76,77)           109.8955         estimate D2E/DX2                !
 ! A162  A(64,76,78)           111.623          estimate D2E/DX2                !
 ! A163  A(64,76,79)           111.1471         estimate D2E/DX2                !
 ! A164  A(77,76,78)           107.745          estimate D2E/DX2                !
 ! A165  A(77,76,79)           108.1601         estimate D2E/DX2                !
 ! A166  A(78,76,79)           108.1401         estimate D2E/DX2                !
 ! A167  A(63,80,81)           112.5646         estimate D2E/DX2                !
 ! A168  A(63,80,82)           111.0901         estimate D2E/DX2                !
 ! A169  A(63,80,83)           109.7182         estimate D2E/DX2                !
 ! A170  A(81,80,82)           107.5891         estimate D2E/DX2                !
 ! A171  A(81,80,83)           107.7464         estimate D2E/DX2                !
 ! A172  A(82,80,83)           107.9633         estimate D2E/DX2                !
 ! A173  A(64,84,85)           111.9173         estimate D2E/DX2                !
 ! A174  A(64,84,86)           112.0994         estimate D2E/DX2                !
 ! A175  A(64,84,87)           109.4716         estimate D2E/DX2                !
 ! A176  A(85,84,86)           107.9244         estimate D2E/DX2                !
 ! A177  A(85,84,87)           107.3391         estimate D2E/DX2                !
 ! A178  A(86,84,87)           107.8961         estimate D2E/DX2                !
 ! A179  A(64,88,89)           109.5984         estimate D2E/DX2                !
 ! A180  A(64,88,90)           110.8409         estimate D2E/DX2                !
 ! A181  A(64,88,91)           111.7606         estimate D2E/DX2                !
 ! A182  A(89,88,90)           108.0496         estimate D2E/DX2                !
 ! A183  A(89,88,91)           107.8521         estimate D2E/DX2                !
 ! A184  A(90,88,91)           108.6206         estimate D2E/DX2                !
 ! A185  A(60,92,93)           106.0272         estimate D2E/DX2                !
 ! A186  A(60,92,94)           111.1003         estimate D2E/DX2                !
 ! A187  A(60,92,95)           110.9647         estimate D2E/DX2                !
 ! A188  A(93,92,94)           109.5582         estimate D2E/DX2                !
 ! A189  A(93,92,95)           109.2231         estimate D2E/DX2                !
 ! A190  A(94,92,95)           109.878          estimate D2E/DX2                !
 ! A191  A(71,96,97)           106.0604         estimate D2E/DX2                !
 ! A192  A(71,96,98)           111.547          estimate D2E/DX2                !
 ! A193  A(71,96,99)           111.23           estimate D2E/DX2                !
 ! A194  A(97,96,98)           109.2802         estimate D2E/DX2                !
 ! A195  A(97,96,99)           109.2381         estimate D2E/DX2                !
 ! A196  A(98,96,99)           109.4012         estimate D2E/DX2                !
 ! A197  L(4,1,6,5,-1)         184.7454         estimate D2E/DX2                !
 ! A198  L(5,1,14,4,-1)        178.3842         estimate D2E/DX2                !
 ! A199  L(7,1,13,4,-1)        182.2561         estimate D2E/DX2                !
 ! A200  L(4,1,6,5,-2)         175.7061         estimate D2E/DX2                !
 ! A201  L(5,1,14,4,-2)        172.772          estimate D2E/DX2                !
 ! A202  L(7,1,13,4,-2)        192.7417         estimate D2E/DX2                !
 ! D1    D(5,1,4,9)            -94.2826         estimate D2E/DX2                !
 ! D2    D(5,1,4,33)            83.3001         estimate D2E/DX2                !
 ! D3    D(7,1,4,9)           -165.5031         estimate D2E/DX2                !
 ! D4    D(7,1,4,33)            12.0795         estimate D2E/DX2                !
 ! D5    D(13,1,4,9)             1.7551         estimate D2E/DX2                !
 ! D6    D(13,1,4,33)          179.3378         estimate D2E/DX2                !
 ! D7    D(14,1,4,9)            92.9454         estimate D2E/DX2                !
 ! D8    D(14,1,4,33)          -89.4719         estimate D2E/DX2                !
 ! D9    D(4,1,5,8)           -101.8345         estimate D2E/DX2                !
 ! D10   D(4,1,5,10)            74.8953         estimate D2E/DX2                !
 ! D11   D(6,1,5,8)             82.4594         estimate D2E/DX2                !
 ! D12   D(6,1,5,10)          -100.8108         estimate D2E/DX2                !
 ! D13   D(7,1,5,8)              3.1324         estimate D2E/DX2                !
 ! D14   D(7,1,5,10)           179.8622         estimate D2E/DX2                !
 ! D15   D(13,1,5,8)           178.7119         estimate D2E/DX2                !
 ! D16   D(13,1,5,10)           -4.5583         estimate D2E/DX2                !
 ! D17   D(5,1,6,18)             6.2613         estimate D2E/DX2                !
 ! D18   D(5,1,6,36)          -170.9951         estimate D2E/DX2                !
 ! D19   D(7,1,6,18)            77.6866         estimate D2E/DX2                !
 ! D20   D(7,1,6,36)           -99.5698         estimate D2E/DX2                !
 ! D21   D(13,1,6,18)          -89.6182         estimate D2E/DX2                !
 ! D22   D(13,1,6,36)           93.1254         estimate D2E/DX2                !
 ! D23   D(14,1,6,18)          179.1008         estimate D2E/DX2                !
 ! D24   D(14,1,6,36)            1.8444         estimate D2E/DX2                !
 ! D25   D(4,1,7,12)            75.3071         estimate D2E/DX2                !
 ! D26   D(4,1,7,16)          -103.6332         estimate D2E/DX2                !
 ! D27   D(5,1,7,12)            -3.2221         estimate D2E/DX2                !
 ! D28   D(5,1,7,16)           177.8377         estimate D2E/DX2                !
 ! D29   D(6,1,7,12)          -107.8711         estimate D2E/DX2                !
 ! D30   D(6,1,7,16)            73.1887         estimate D2E/DX2                !
 ! D31   D(14,1,7,12)          173.3656         estimate D2E/DX2                !
 ! D32   D(14,1,7,16)           -5.5746         estimate D2E/DX2                !
 ! D33   D(4,1,13,15)           -1.4158         estimate D2E/DX2                !
 ! D34   D(4,1,13,31)         -178.9672         estimate D2E/DX2                !
 ! D35   D(5,1,13,15)           80.3655         estimate D2E/DX2                !
 ! D36   D(5,1,13,31)          -97.1859         estimate D2E/DX2                !
 ! D37   D(6,1,13,15)         -177.1023         estimate D2E/DX2                !
 ! D38   D(6,1,13,31)            5.3463         estimate D2E/DX2                !
 ! D39   D(14,1,13,15)         -96.7864         estimate D2E/DX2                !
 ! D40   D(14,1,13,31)          85.6622         estimate D2E/DX2                !
 ! D41   D(4,1,14,27)            5.6749         estimate D2E/DX2                !
 ! D42   D(4,1,14,29)         -176.7544         estimate D2E/DX2                !
 ! D43   D(6,1,14,27)         -179.1633         estimate D2E/DX2                !
 ! D44   D(6,1,14,29)           -1.5926         estimate D2E/DX2                !
 ! D45   D(7,1,14,27)          -97.6898         estimate D2E/DX2                !
 ! D46   D(7,1,14,29)           79.8809         estimate D2E/DX2                !
 ! D47   D(13,1,14,27)          86.0059         estimate D2E/DX2                !
 ! D48   D(13,1,14,29)         -96.4234         estimate D2E/DX2                !
 ! D49   D(35,2,9,4)             0.4823         estimate D2E/DX2                !
 ! D50   D(35,2,9,15)          179.274          estimate D2E/DX2                !
 ! D51   D(9,2,35,33)            0.0972         estimate D2E/DX2                !
 ! D52   D(9,2,35,56)         -179.8896         estimate D2E/DX2                !
 ! D53   D(43,3,36,6)            0.1748         estimate D2E/DX2                !
 ! D54   D(43,3,36,29)         179.4871         estimate D2E/DX2                !
 ! D55   D(36,3,43,18)          -0.0784         estimate D2E/DX2                !
 ! D56   D(36,3,43,52)         179.8752         estimate D2E/DX2                !
 ! D57   D(1,4,9,2)            177.1366         estimate D2E/DX2                !
 ! D58   D(1,4,9,15)            -1.7838         estimate D2E/DX2                !
 ! D59   D(33,4,9,2)            -0.9433         estimate D2E/DX2                !
 ! D60   D(33,4,9,15)         -179.8637         estimate D2E/DX2                !
 ! D61   D(1,4,33,25)            4.8352         estimate D2E/DX2                !
 ! D62   D(1,4,33,35)         -176.5698         estimate D2E/DX2                !
 ! D63   D(9,4,33,25)         -177.5868         estimate D2E/DX2                !
 ! D64   D(9,4,33,35)            1.0082         estimate D2E/DX2                !
 ! D65   D(1,5,8,12)            -2.7177         estimate D2E/DX2                !
 ! D66   D(1,5,8,23)           178.6941         estimate D2E/DX2                !
 ! D67   D(10,5,8,12)         -179.6126         estimate D2E/DX2                !
 ! D68   D(10,5,8,23)            1.7992         estimate D2E/DX2                !
 ! D69   D(1,5,10,11)            3.4638         estimate D2E/DX2                !
 ! D70   D(1,5,10,21)         -176.8891         estimate D2E/DX2                !
 ! D71   D(8,5,10,11)         -179.8608         estimate D2E/DX2                !
 ! D72   D(8,5,10,21)           -0.2138         estimate D2E/DX2                !
 ! D73   D(1,6,18,39)            4.5518         estimate D2E/DX2                !
 ! D74   D(1,6,18,43)         -177.1075         estimate D2E/DX2                !
 ! D75   D(36,6,18,39)        -178.1825         estimate D2E/DX2                !
 ! D76   D(36,6,18,43)           0.1582         estimate D2E/DX2                !
 ! D77   D(1,6,36,3)           177.6192         estimate D2E/DX2                !
 ! D78   D(1,6,36,29)           -1.7651         estimate D2E/DX2                !
 ! D79   D(18,6,36,3)           -0.2231         estimate D2E/DX2                !
 ! D80   D(18,6,36,29)        -179.6073         estimate D2E/DX2                !
 ! D81   D(1,7,12,8)             2.9447         estimate D2E/DX2                !
 ! D82   D(1,7,12,19)         -176.2273         estimate D2E/DX2                !
 ! D83   D(16,7,12,8)         -178.0728         estimate D2E/DX2                !
 ! D84   D(16,7,12,19)           2.7553         estimate D2E/DX2                !
 ! D85   D(1,7,16,17)           -1.0107         estimate D2E/DX2                !
 ! D86   D(1,7,16,37)          177.9227         estimate D2E/DX2                !
 ! D87   D(12,7,16,17)        -179.9331         estimate D2E/DX2                !
 ! D88   D(12,7,16,37)          -0.9998         estimate D2E/DX2                !
 ! D89   D(5,8,12,7)            -0.1364         estimate D2E/DX2                !
 ! D90   D(5,8,12,19)          179.0151         estimate D2E/DX2                !
 ! D91   D(23,8,12,7)          178.4118         estimate D2E/DX2                !
 ! D92   D(23,8,12,19)          -2.4368         estimate D2E/DX2                !
 ! D93   D(5,8,23,24)          176.4532         estimate D2E/DX2                !
 ! D94   D(5,8,23,34)           -2.1825         estimate D2E/DX2                !
 ! D95   D(12,8,23,24)          -2.0267         estimate D2E/DX2                !
 ! D96   D(12,8,23,34)         179.3376         estimate D2E/DX2                !
 ! D97   D(2,9,15,13)         -178.1272         estimate D2E/DX2                !
 ! D98   D(2,9,15,46)            1.5926         estimate D2E/DX2                !
 ! D99   D(4,9,15,13)            0.6206         estimate D2E/DX2                !
 ! D100  D(4,9,15,46)         -179.6596         estimate D2E/DX2                !
 ! D101  D(5,10,21,22)         179.4517         estimate D2E/DX2                !
 ! D102  D(5,10,21,34)          -1.0355         estimate D2E/DX2                !
 ! D103  D(11,10,21,22)         -0.9149         estimate D2E/DX2                !
 ! D104  D(11,10,21,34)        178.5979         estimate D2E/DX2                !
 ! D105  D(7,12,19,20)         177.2405         estimate D2E/DX2                !
 ! D106  D(7,12,19,30)          -2.928          estimate D2E/DX2                !
 ! D107  D(8,12,19,20)          -1.8692         estimate D2E/DX2                !
 ! D108  D(8,12,19,30)         177.9623         estimate D2E/DX2                !
 ! D109  D(1,13,15,9)            0.9363         estimate D2E/DX2                !
 ! D110  D(1,13,15,46)        -178.8008         estimate D2E/DX2                !
 ! D111  D(31,13,15,9)         178.6675         estimate D2E/DX2                !
 ! D112  D(31,13,15,46)         -1.0696         estimate D2E/DX2                !
 ! D113  D(1,13,31,32)          -1.9992         estimate D2E/DX2                !
 ! D114  D(1,13,31,44)         177.8611         estimate D2E/DX2                !
 ! D115  D(15,13,31,32)       -179.4505         estimate D2E/DX2                !
 ! D116  D(15,13,31,44)          0.4099         estimate D2E/DX2                !
 ! D117  D(1,14,27,28)          -2.1764         estimate D2E/DX2                !
 ! D118  D(1,14,27,45)         177.9521         estimate D2E/DX2                !
 ! D119  D(29,14,27,28)       -179.6653         estimate D2E/DX2                !
 ! D120  D(29,14,27,45)          0.4632         estimate D2E/DX2                !
 ! D121  D(1,14,29,36)           1.1703         estimate D2E/DX2                !
 ! D122  D(1,14,29,50)        -178.623          estimate D2E/DX2                !
 ! D123  D(27,14,29,36)        178.9359         estimate D2E/DX2                !
 ! D124  D(27,14,29,50)         -0.8574         estimate D2E/DX2                !
 ! D125  D(9,15,46,47)           0.3683         estimate D2E/DX2                !
 ! D126  D(9,15,46,54)        -178.6454         estimate D2E/DX2                !
 ! D127  D(13,15,46,47)       -179.9289         estimate D2E/DX2                !
 ! D128  D(13,15,46,54)          1.0575         estimate D2E/DX2                !
 ! D129  D(7,16,37,30)          -0.6191         estimate D2E/DX2                !
 ! D130  D(7,16,37,38)         179.6604         estimate D2E/DX2                !
 ! D131  D(17,16,37,30)        178.2752         estimate D2E/DX2                !
 ! D132  D(17,16,37,38)         -1.4452         estimate D2E/DX2                !
 ! D133  D(6,18,39,40)          -0.1077         estimate D2E/DX2                !
 ! D134  D(6,18,39,41)         179.7574         estimate D2E/DX2                !
 ! D135  D(43,18,39,40)       -178.3476         estimate D2E/DX2                !
 ! D136  D(43,18,39,41)          1.5175         estimate D2E/DX2                !
 ! D137  D(6,18,43,3)           -0.0256         estimate D2E/DX2                !
 ! D138  D(6,18,43,52)        -179.9824         estimate D2E/DX2                !
 ! D139  D(39,18,43,3)         178.4541         estimate D2E/DX2                !
 ! D140  D(39,18,43,52)         -1.5027         estimate D2E/DX2                !
 ! D141  D(12,19,30,37)          1.2516         estimate D2E/DX2                !
 ! D142  D(12,19,30,64)       -178.6651         estimate D2E/DX2                !
 ! D143  D(20,19,30,37)       -178.9154         estimate D2E/DX2                !
 ! D144  D(20,19,30,64)          1.168          estimate D2E/DX2                !
 ! D145  D(10,21,34,23)          0.6468         estimate D2E/DX2                !
 ! D146  D(10,21,34,63)       -179.8842         estimate D2E/DX2                !
 ! D147  D(22,21,34,23)       -179.8652         estimate D2E/DX2                !
 ! D148  D(22,21,34,63)         -0.3961         estimate D2E/DX2                !
 ! D149  D(8,23,34,21)           0.8992         estimate D2E/DX2                !
 ! D150  D(8,23,34,63)        -178.5881         estimate D2E/DX2                !
 ! D151  D(24,23,34,21)       -177.7474         estimate D2E/DX2                !
 ! D152  D(24,23,34,63)          2.7653         estimate D2E/DX2                !
 ! D153  D(26,25,33,4)           0.5121         estimate D2E/DX2                !
 ! D154  D(26,25,33,35)       -177.98           estimate D2E/DX2                !
 ! D155  D(48,25,33,4)        -179.9021         estimate D2E/DX2                !
 ! D156  D(48,25,33,35)          1.6059         estimate D2E/DX2                !
 ! D157  D(26,25,48,49)         -0.8419         estimate D2E/DX2                !
 ! D158  D(26,25,48,61)        179.0765         estimate D2E/DX2                !
 ! D159  D(33,25,48,49)        179.5781         estimate D2E/DX2                !
 ! D160  D(33,25,48,61)         -0.5034         estimate D2E/DX2                !
 ! D161  D(14,27,45,60)        179.8667         estimate D2E/DX2                !
 ! D162  D(14,27,45,65)         -0.0814         estimate D2E/DX2                !
 ! D163  D(28,27,45,60)         -0.0096         estimate D2E/DX2                !
 ! D164  D(28,27,45,65)       -179.9576         estimate D2E/DX2                !
 ! D165  D(14,29,36,3)        -178.8338         estimate D2E/DX2                !
 ! D166  D(14,29,36,6)           0.4567         estimate D2E/DX2                !
 ! D167  D(50,29,36,3)           0.9461         estimate D2E/DX2                !
 ! D168  D(50,29,36,6)        -179.7635         estimate D2E/DX2                !
 ! D169  D(14,29,50,51)       -179.6511         estimate D2E/DX2                !
 ! D170  D(14,29,50,65)          0.8638         estimate D2E/DX2                !
 ! D171  D(36,29,50,51)          0.5834         estimate D2E/DX2                !
 ! D172  D(36,29,50,65)       -178.9017         estimate D2E/DX2                !
 ! D173  D(19,30,37,16)          0.4601         estimate D2E/DX2                !
 ! D174  D(19,30,37,38)       -179.8317         estimate D2E/DX2                !
 ! D175  D(64,30,37,16)       -179.626          estimate D2E/DX2                !
 ! D176  D(64,30,37,38)          0.0821         estimate D2E/DX2                !
 ! D177  D(19,30,64,76)        -59.3749         estimate D2E/DX2                !
 ! D178  D(19,30,64,84)       -179.7994         estimate D2E/DX2                !
 ! D179  D(19,30,64,88)         60.1744         estimate D2E/DX2                !
 ! D180  D(37,30,64,76)        120.714          estimate D2E/DX2                !
 ! D181  D(37,30,64,84)          0.2895         estimate D2E/DX2                !
 ! D182  D(37,30,64,88)       -119.7367         estimate D2E/DX2                !
 ! D183  D(13,31,44,54)          0.2555         estimate D2E/DX2                !
 ! D184  D(13,31,44,71)        179.801          estimate D2E/DX2                !
 ! D185  D(32,31,44,54)       -179.879          estimate D2E/DX2                !
 ! D186  D(32,31,44,71)         -0.3335         estimate D2E/DX2                !
 ! D187  D(4,33,35,2)           -0.6219         estimate D2E/DX2                !
 ! D188  D(4,33,35,56)         179.3659         estimate D2E/DX2                !
 ! D189  D(25,33,35,2)         178.0868         estimate D2E/DX2                !
 ! D190  D(25,33,35,56)         -1.9253         estimate D2E/DX2                !
 ! D191  D(21,34,63,67)       -119.4164         estimate D2E/DX2                !
 ! D192  D(21,34,63,72)          0.368          estimate D2E/DX2                !
 ! D193  D(21,34,63,80)        121.3299         estimate D2E/DX2                !
 ! D194  D(23,34,63,67)         60.0324         estimate D2E/DX2                !
 ! D195  D(23,34,63,72)        179.8168         estimate D2E/DX2                !
 ! D196  D(23,34,63,80)        -59.2213         estimate D2E/DX2                !
 ! D197  D(2,35,56,57)          -0.1746         estimate D2E/DX2                !
 ! D198  D(2,35,56,61)        -178.9578         estimate D2E/DX2                !
 ! D199  D(33,35,56,57)        179.8398         estimate D2E/DX2                !
 ! D200  D(33,35,56,61)          1.0566         estimate D2E/DX2                !
 ! D201  D(18,39,41,42)        179.6054         estimate D2E/DX2                !
 ! D202  D(18,39,41,58)         -0.6247         estimate D2E/DX2                !
 ! D203  D(40,39,41,42)         -0.5307         estimate D2E/DX2                !
 ! D204  D(40,39,41,58)        179.2393         estimate D2E/DX2                !
 ! D205  D(39,41,58,52)         -0.353          estimate D2E/DX2                !
 ! D206  D(39,41,58,59)       -179.8764         estimate D2E/DX2                !
 ! D207  D(42,41,58,52)        179.4156         estimate D2E/DX2                !
 ! D208  D(42,41,58,59)         -0.1077         estimate D2E/DX2                !
 ! D209  D(3,43,52,53)           0.4279         estimate D2E/DX2                !
 ! D210  D(3,43,52,58)        -179.4342         estimate D2E/DX2                !
 ! D211  D(18,43,52,53)       -179.6235         estimate D2E/DX2                !
 ! D212  D(18,43,52,58)          0.5143         estimate D2E/DX2                !
 ! D213  D(31,44,54,46)         -0.2786         estimate D2E/DX2                !
 ! D214  D(31,44,54,55)        179.6174         estimate D2E/DX2                !
 ! D215  D(71,44,54,46)       -179.7862         estimate D2E/DX2                !
 ! D216  D(71,44,54,55)          0.1099         estimate D2E/DX2                !
 ! D217  D(31,44,71,96)       -179.6831         estimate D2E/DX2                !
 ! D218  D(54,44,71,96)         -0.1579         estimate D2E/DX2                !
 ! D219  D(27,45,60,92)       -179.6            estimate D2E/DX2                !
 ! D220  D(65,45,60,92)          0.3457         estimate D2E/DX2                !
 ! D221  D(27,45,65,50)          0.0753         estimate D2E/DX2                !
 ! D222  D(27,45,65,66)        179.905          estimate D2E/DX2                !
 ! D223  D(60,45,65,50)       -179.8685         estimate D2E/DX2                !
 ! D224  D(60,45,65,66)         -0.0387         estimate D2E/DX2                !
 ! D225  D(15,46,54,44)         -0.381          estimate D2E/DX2                !
 ! D226  D(15,46,54,55)        179.7209         estimate D2E/DX2                !
 ! D227  D(47,46,54,44)       -179.4139         estimate D2E/DX2                !
 ! D228  D(47,46,54,55)          0.688          estimate D2E/DX2                !
 ! D229  D(25,48,61,56)         -0.3342         estimate D2E/DX2                !
 ! D230  D(25,48,61,62)       -179.9334         estimate D2E/DX2                !
 ! D231  D(49,48,61,56)        179.5836         estimate D2E/DX2                !
 ! D232  D(49,48,61,62)         -0.0156         estimate D2E/DX2                !
 ! D233  D(29,50,65,45)         -0.4692         estimate D2E/DX2                !
 ! D234  D(29,50,65,66)        179.6976         estimate D2E/DX2                !
 ! D235  D(51,50,65,45)       -179.9685         estimate D2E/DX2                !
 ! D236  D(51,50,65,66)          0.1983         estimate D2E/DX2                !
 ! D237  D(43,52,58,41)          0.4119         estimate D2E/DX2                !
 ! D238  D(43,52,58,59)        179.9369         estimate D2E/DX2                !
 ! D239  D(53,52,58,41)       -179.45           estimate D2E/DX2                !
 ! D240  D(53,52,58,59)          0.075          estimate D2E/DX2                !
 ! D241  D(35,56,61,48)          0.0645         estimate D2E/DX2                !
 ! D242  D(35,56,61,62)        179.6655         estimate D2E/DX2                !
 ! D243  D(57,56,61,48)       -178.721          estimate D2E/DX2                !
 ! D244  D(57,56,61,62)          0.88           estimate D2E/DX2                !
 ! D245  D(45,60,92,93)        179.8377         estimate D2E/DX2                !
 ! D246  D(45,60,92,94)         60.8789         estimate D2E/DX2                !
 ! D247  D(45,60,92,95)        -61.6783         estimate D2E/DX2                !
 ! D248  D(34,63,67,68)         60.094          estimate D2E/DX2                !
 ! D249  D(34,63,67,69)        -61.0715         estimate D2E/DX2                !
 ! D250  D(34,63,67,70)        179.2595         estimate D2E/DX2                !
 ! D251  D(72,63,67,68)        -61.4916         estimate D2E/DX2                !
 ! D252  D(72,63,67,69)        177.3428         estimate D2E/DX2                !
 ! D253  D(72,63,67,70)         57.6738         estimate D2E/DX2                !
 ! D254  D(80,63,67,68)        178.9405         estimate D2E/DX2                !
 ! D255  D(80,63,67,69)         57.775          estimate D2E/DX2                !
 ! D256  D(80,63,67,70)        -61.894          estimate D2E/DX2                !
 ! D257  D(34,63,72,73)        179.7744         estimate D2E/DX2                !
 ! D258  D(34,63,72,74)         61.4173         estimate D2E/DX2                !
 ! D259  D(34,63,72,75)        -61.1472         estimate D2E/DX2                !
 ! D260  D(67,63,72,73)        -60.852          estimate D2E/DX2                !
 ! D261  D(67,63,72,74)       -179.209          estimate D2E/DX2                !
 ! D262  D(67,63,72,75)         58.2264         estimate D2E/DX2                !
 ! D263  D(80,63,72,73)         58.9589         estimate D2E/DX2                !
 ! D264  D(80,63,72,74)        -59.3981         estimate D2E/DX2                !
 ! D265  D(80,63,72,75)        178.0373         estimate D2E/DX2                !
 ! D266  D(34,63,80,81)         60.4686         estimate D2E/DX2                !
 ! D267  D(34,63,80,82)        -60.2613         estimate D2E/DX2                !
 ! D268  D(34,63,80,83)       -179.5602         estimate D2E/DX2                !
 ! D269  D(67,63,80,81)        -57.8155         estimate D2E/DX2                !
 ! D270  D(67,63,80,82)       -178.5455         estimate D2E/DX2                !
 ! D271  D(67,63,80,83)         62.1556         estimate D2E/DX2                !
 ! D272  D(72,63,80,81)       -177.0987         estimate D2E/DX2                !
 ! D273  D(72,63,80,82)         62.1714         estimate D2E/DX2                !
 ! D274  D(72,63,80,83)        -57.1275         estimate D2E/DX2                !
 ! D275  D(30,64,76,77)       -179.5158         estimate D2E/DX2                !
 ! D276  D(30,64,76,78)         61.0042         estimate D2E/DX2                !
 ! D277  D(30,64,76,79)        -59.8211         estimate D2E/DX2                !
 ! D278  D(84,64,76,77)        -57.0147         estimate D2E/DX2                !
 ! D279  D(84,64,76,78)       -176.4947         estimate D2E/DX2                !
 ! D280  D(84,64,76,79)         62.68           estimate D2E/DX2                !
 ! D281  D(88,64,76,77)         61.6944         estimate D2E/DX2                !
 ! D282  D(88,64,76,78)        -57.7856         estimate D2E/DX2                !
 ! D283  D(88,64,76,79)       -178.6109         estimate D2E/DX2                !
 ! D284  D(30,64,84,85)         60.8079         estimate D2E/DX2                !
 ! D285  D(30,64,84,86)        -60.6193         estimate D2E/DX2                !
 ! D286  D(30,64,84,87)        179.6886         estimate D2E/DX2                !
 ! D287  D(76,64,84,85)        -59.8898         estimate D2E/DX2                !
 ! D288  D(76,64,84,86)        178.683          estimate D2E/DX2                !
 ! D289  D(76,64,84,87)         58.9909         estimate D2E/DX2                !
 ! D290  D(88,64,84,85)       -179.2623         estimate D2E/DX2                !
 ! D291  D(88,64,84,86)         59.3105         estimate D2E/DX2                !
 ! D292  D(88,64,84,87)        -60.3816         estimate D2E/DX2                !
 ! D293  D(30,64,88,89)        179.2545         estimate D2E/DX2                !
 ! D294  D(30,64,88,90)         60.0806         estimate D2E/DX2                !
 ! D295  D(30,64,88,91)        -61.24           estimate D2E/DX2                !
 ! D296  D(76,64,88,89)        -61.5726         estimate D2E/DX2                !
 ! D297  D(76,64,88,90)        179.2534         estimate D2E/DX2                !
 ! D298  D(76,64,88,91)         57.9329         estimate D2E/DX2                !
 ! D299  D(84,64,88,89)         57.1277         estimate D2E/DX2                !
 ! D300  D(84,64,88,90)        -62.0462         estimate D2E/DX2                !
 ! D301  D(84,64,88,91)        176.6333         estimate D2E/DX2                !
 ! D302  D(44,71,96,97)       -179.857          estimate D2E/DX2                !
 ! D303  D(44,71,96,98)         61.2556         estimate D2E/DX2                !
 ! D304  D(44,71,96,99)        -61.1925         estimate D2E/DX2                !
 --------------------------------------------------------------------------------
 Trust Radius=5.00D-02 FncErr=5.00D-06 GrdErr=5.00D-06 EigMax=2.50D+02 EigMin=1.00D-04
 Number of steps in this run=    500 maximum allowed number of steps=    594.
 GradGradGradGradGradGradGradGradGradGradGradGradGradGradGradGradGradGrad

 Stoichiometry    C46H44IrN4O2S2(2+,2)
 Framework group  C1[X(C46H44IrN4O2S2)]
 Deg. of freedom   291
 Full point group                 C1      NOp   1
 Largest Abelian subgroup         C1      NOp   1
 Largest concise Abelian subgroup C1      NOp   1
                         Standard orientation:                         
 ---------------------------------------------------------------------
 Center     Atomic      Atomic             Coordinates (Angstroms)
 Number     Number       Type             X           Y           Z
 ---------------------------------------------------------------------
      1         77           0       -0.718624   -0.034707   -0.001496
      2         16           0       -1.483996    1.262644   -4.259404
      3         16           0       -1.985021   -1.236427    4.162735
      4          7           0       -0.728456    0.116799   -2.095465
      5          7           0        1.062233    1.298143   -0.196693
      6          7           0       -0.939812   -0.164880    2.075830
      7          7           0        1.069773   -1.305600    0.365034
      8          6           0        2.275481    0.725141   -0.077454
      9          6           0       -1.521938    1.071057   -2.544801
     10          6           0        0.987772    2.600943   -0.484150
     11          1           0       -0.021514    3.029021   -0.570157
     12          6           0        2.279071   -0.730236    0.234880
     13          6           0       -2.050499    1.439197   -0.230820
     14          6           0       -2.150281   -1.412674    0.102046
     15          6           0       -2.280976    1.830159   -1.584708
     16          6           0        0.992773   -2.601099    0.683582
     17          1           0       -0.007393   -3.026072    0.777515
     18          6           0       -0.313952    0.460341    3.146577
     19          6           0        3.441727   -1.474733    0.370667
     20          1           0        4.417482   -1.000864    0.217140
     21          6           0        2.111169    3.399021   -0.662904
     22          1           0        1.951144    4.450230   -0.904090
     23          6           0        3.437129    1.481472   -0.213194
     24          1           0        4.413599    1.011419   -0.055650
     25          6           0        0.835742   -1.635800   -2.962024
     26          1           0        1.037157   -2.054394   -1.977539
     27          6           0       -2.753655   -2.061548   -0.980910
     28          1           0       -2.488282   -1.818184   -2.015695
     29          6           0       -2.537727   -1.783597    1.429177
     30          6           0        3.389838   -2.833894    0.707242
     31          6           0       -2.706135    2.118413    0.794416
     32          1           0       -2.553897    1.860487    1.839509
     33          6           0       -0.040125   -0.551907   -3.102360
     34          6           0        3.383556    2.848054   -0.521793
     35          6           0       -0.333167   -0.039047   -4.372322
     36          6           0       -1.830680   -1.064024    2.453349
     37          6           0        2.118220   -3.394859    0.869019
     38          1           0        1.971472   -4.441278    1.132885
     39          6           0        0.650229    1.482117    3.091528
     40          1           0        0.989633    1.871545    2.131680
     41          6           0        1.150276    1.977502    4.287210
     42          1           0        1.903773    2.766012    4.259324
     43          6           0       -0.764821   -0.004865    4.390783
     44          6           0       -3.594451    3.175166    0.494205
     45          6           0       -3.726429   -3.049418   -0.771226
     46          6           0       -3.168716    2.864357   -1.877500
     47          1           0       -3.350816    3.167476   -2.905198
     48          6           0        1.422557   -2.155519   -4.107543
     49          1           0        2.117343   -3.001630   -4.011252
     50          6           0       -3.509888   -2.759106    1.635460
     51          1           0       -3.818545   -3.047338    2.638844
     52          6           0       -0.263074    0.494343    5.595461
     53          1           0       -0.619530    0.118057    6.550496
     54          6           0       -3.824692    3.542931   -0.849011
     55          1           0       -4.511499    4.351873   -1.101265
     56          6           0        0.265690   -0.563044   -5.526295
     57          1           0        0.033529   -0.162837   -6.517300
     58          6           0        0.702653    1.487920    5.528224
     59          1           0        1.114297    1.899840    6.454400
     60          8           0       -4.243821   -3.606850   -1.868073
     61          6           0        1.145787   -1.626485   -5.371099
     62          1           0        1.623232   -2.058486   -6.255983
     63          6           0        4.675064    3.650009   -0.697358
     64          6           0        4.684306   -3.631329    0.882471
     65          6           0       -4.103366   -3.397865    0.546329
     66          1           0       -4.858829   -4.162244    0.730556
     67          6           0        5.479953    3.018830   -1.855583
     68          1           0        4.905444    3.042675   -2.798375
     69          1           0        5.755780    1.971896   -1.648329
     70          1           0        6.412038    3.591867   -2.008333
     71          8           0       -4.175673    3.760424    1.533199
     72          6           0        4.390360    5.118286   -1.034539
     73          1           0        5.348667    5.656747   -1.147662
     74          1           0        3.828179    5.617797   -0.229113
     75          1           0        3.836180    5.229117   -1.976552
     76          6           0        5.486213   -3.587422   -0.431750
     77          1           0        6.421194   -4.167780   -0.321704
     78          1           0        5.761604   -2.555061   -0.705553
     79          1           0        4.908485   -4.021158   -1.265029
     80          6           0        5.490947    3.576271    0.599978
     81          1           0        5.770038    2.543813    0.865929
     82          1           0        4.922244    4.001007    1.454539
     83          1           0        6.423905    4.159352    0.487674
     84          6           0        4.414567   -5.095081    1.243418
     85          1           0        3.834413   -5.616251    0.453941
     86          1           0        3.860268   -5.193340    2.193262
     87          1           0        5.375102   -5.630298    1.353835
     88          6           0        5.511815   -2.982768    2.022969
     89          1           0        6.445714   -3.553402    2.173873
     90          1           0        4.947411   -2.992593    2.972653
     91          1           0        5.786147   -1.942269    1.787624
     92          6           0       -5.241982   -4.610800   -1.750378
     93          1           0       -5.501991   -4.901899   -2.777356
     94          1           0       -6.134195   -4.223339   -1.241104
     95          1           0       -4.853327   -5.493908   -1.208727
     96          6           0       -5.085190    4.823099    1.329541
     97          1           0       -5.420254    5.132333    2.329412
     98          1           0       -5.958778    4.501083    0.735617
     99          1           0       -4.595417    5.679051    0.828338
 ---------------------------------------------------------------------
 Rotational constants (GHZ):           0.0499568           0.0414535           0.0411026
 Standard basis: def2SVPP (5D, 7F)
 There are   933 symmetry adapted cartesian basis functions of A   symmetry.
 There are   877 symmetry adapted basis functions of A   symmetry.
   877 basis functions,  1605 primitive gaussians,   933 cartesian basis functions
   206 alpha electrons      205 beta electrons
       nuclear repulsion energy      8809.3369941754 Hartrees.
 NAtoms=   99 NActive=   99 NUniq=   99 SFac= 1.00D+00 NAtFMM=   60 NAOKFM=T Big=T
 Integral buffers will be    131072 words long.
 Raffenetti 2 integral format.
 Two-electron integral symmetry is turned on.
 Nuclear repulsion after empirical dispersion term =     8809.2173146944 Hartrees.
 ------------------------------------------------------------------------------
 Polarizable Continuum Model (PCM)
 =================================
 Model                : PCM.
 Atomic radii         : SMD-Coulomb.
 Polarization charges : Total charges.
 Charge compensation  : None.
 Solution method      : On-the-fly selection.
 Cavity type          : VdW (van der Waals Surface) (Alpha=1.000).
 Cavity algorithm     : GePol (No added spheres)
                        Default sphere list used, NSphG=   99.
                        Lebedev-Laikov grids with approx.  5.0 points / Ang**2.
                        Smoothing algorithm: York/Karplus (Gamma=1.0000).
                        Polarization charges: spherical gaussians, with
                                              point-specific exponents (IZeta= 3).
                        Self-potential: point-specific (ISelfS= 7).
                        Self-field    : sphere-specific E.n sum rule (ISelfD= 2).
 1st derivatives      : Analytical E(r).r(x)/FMM algorithm (CHGder, D1EAlg=3).
                        Cavity 1st derivative terms included.
 Solvent              : Acetonitrile, Eps=  35.688000 Eps(inf)=   1.806874
 ------------------------------------------------------------------------------
 ------------------------------------------------------------------------------
 Atomic radii for non-electrostatic terms: SMD-CDS.
 ------------------------------------------------------------------------------
 Nuclear repulsion after PCM non-electrostatic terms =     8809.2037106698 Hartrees.
 One-electron integrals computed using PRISM.
   1 Symmetry operations used in ECPInt.
 ECPInt:  NShTT=   91378 NPrTT=  365952 LenC2=   74181 LenP2D=  177157.
 LDataN:  DoStor=T MaxTD1= 7 Len=  274
 NBasis=   877 RedAO= T EigKep=  2.15D-04  NBF=   877
 NBsUse=   877 1.00D-06 EigRej= -1.00D+00 NBFU=   877
 ExpMin= 4.98D-02 ExpMax= 9.18D+03 ExpMxC= 1.38D+03 IAcc=3 IRadAn=         7 AccDes= 0.00D+00
 Harris functional with IExCor= 4639 and IRadAn=       7 diagonalized for initial guess.
 HarFok:  IExCor= 4639 AccDes= 0.00D+00 IRadAn=         7 IDoV= 1 UseB2=F ITyADJ=14
 ICtDFT=  3500011 ScaDFX=  1.000000  1.000000  1.000000  1.000000
 FoFCou: FMM=F IPFlag=           0 FMFlag=      100000 FMFlg1=        2001
         NFxFlg=           0 DoJE=T BraDBF=F KetDBF=T FulRan=T
         wScrn=  0.000000 ICntrl=       500 IOpCl=  0 I1Cent=   200000004 NGrid=           0
         NMat0=    1 NMatS0=      1 NMatT0=    0 NMatD0=    1 NMtDS0=    0 NMtDT0=    0
 Petite list used in FoFCou.
 Initial guess <Sx>= 0.0000 <Sy>= 0.0000 <Sz>= 0.5000 <S**2>= 0.7500 S= 0.5000
 Requested convergence on RMS density matrix=1.00D-08 within 500 cycles.
 Requested convergence on MAX density matrix=1.00D-06.
 Requested convergence on             energy=1.00D-06.
 No special actions if energy rises.
 Inv3:  Mode=1 IEnd=   144490800.
 Iteration    1 A*A^-1 deviation from unit magnitude is 7.11D-15 for   6912.
 Iteration    1 A*A^-1 deviation from orthogonality  is 3.19D-15 for   6928   5244.
 Iteration    1 A^-1*A deviation from unit magnitude is 6.88D-15 for   6912.
 Iteration    1 A^-1*A deviation from orthogonality  is 1.32D-14 for   2891   2846.
 Restarting incremental Fock formation.
 Error on total polarization charges =  0.06374
 SCF Done:  E(UwB97XD) =  -3046.93351712     A.U. after   38 cycles
            NFock= 38  Conv=0.10D-08     -V/T= 2.0316
 <Sx>= 0.0000 <Sy>= 0.0000 <Sz>= 0.5000 <S**2>= 0.7759 S= 0.5129
 <L.S>= 0.000000000000E+00
 SMD-CDS (non-electrostatic) energy       (kcal/mol) =      -8.54
 (included in total energy above)
 Annihilation of the first spin contaminant:
 S**2 before annihilation     0.7759,   after     0.7506

 **********************************************************************

            Population analysis using the SCF Density.

 **********************************************************************

 Orbital symmetries:
 Alpha Orbitals:
       Occupied  (A) (A) (A) (A) (A) (A) (A) (A) (A) (A) (A) (A)
                 (A) (A) (A) (A) (A) (A) (A) (A) (A) (A) (A) (A)
                 (A) (A) (A) (A) (A) (A) (A) (A) (A) (A) (A) (A)
                 (A) (A) (A) (A) (A) (A) (A) (A) (A) (A) (A) (A)
                 (A) (A) (A) (A) (A) (A) (A) (A) (A) (A) (A) (A)
                 (A) (A) (A) (A) (A) (A) (A) (A) (A) (A) (A) (A)
                 (A) (A) (A) (A) (A) (A) (A) (A) (A) (A) (A) (A)
                 (A) (A) (A) (A) (A) (A) (A) (A) (A) (A) (A) (A)
                 (A) (A) (A) (A) (A) (A) (A) (A) (A) (A) (A) (A)
                 (A) (A) (A) (A) (A) (A) (A) (A) (A) (A) (A) (A)
                 (A) (A) (A) (A) (A) (A) (A) (A) (A) (A) (A) (A)
                 (A) (A) (A) (A) (A) (A) (A) (A) (A) (A) (A) (A)
                 (A) (A) (A) (A) (A) (A) (A) (A) (A) (A) (A) (A)
                 (A) (A) (A) (A) (A) (A) (A) (A) (A) (A) (A) (A)
                 (A) (A) (A) (A) (A) (A) (A) (A) (A) (A) (A) (A)
                 (A) (A) (A) (A) (A) (A) (A) (A) (A) (A) (A) (A)
                 (A) (A) (A) (A) (A) (A) (A) (A) (A) (A) (A) (A)
                 (A) (A)
       Virtual   (A) (A) (A) (A) (A) (A) (A) (A) (A) (A) (A) (A)
                 (A) (A) (A) (A) (A) (A) (A) (A) (A) (A) (A) (A)
                 (A) (A) (A) (A) (A) (A) (A) (A) (A) (A) (A) (A)
                 (A) (A) (A) (A) (A) (A) (A) (A) (A) (A) (A) (A)
                 (A) (A) (A) (A) (A) (A) (A) (A) (A) (A) (A) (A)
                 (A) (A) (A) (A) (A) (A) (A) (A) (A) (A) (A) (A)
                 (A) (A) (A) (A) (A) (A) (A) (A) (A) (A) (A) (A)
                 (A) (A) (A) (A) (A) (A) (A) (A) (A) (A) (A) (A)
                 (A) (A) (A) (A) (A) (A) (A) (A) (A) (A) (A) (A)
                 (A) (A) (A) (A) (A) (A) (A) (A) (A) (A) (A) (A)
                 (A) (A) (A) (A) (A) (A) (A) (A) (A) (A) (A) (A)
                 (A) (A) (A) (A) (A) (A) (A) (A) (A) (A) (A) (A)
                 (A) (A) (A) (A) (A) (A) (A) (A) (A) (A) (A) (A)
                 (A) (A) (A) (A) (A) (A) (A) (A) (A) (A) (A) (A)
                 (A) (A) (A) (A) (A) (A) (A) (A) (A) (A) (A) (A)
                 (A) (A) (A) (A) (A) (A) (A) (A) (A) (A) (A) (A)
                 (A) (A) (A) (A) (A) (A) (A) (A) (A) (A) (A) (A)
                 (A) (A) (A) (A) (A) (A) (A) (A) (A) (A) (A) (A)
                 (A) (A) (A) (A) (A) (A) (A) (A) (A) (A) (A) (A)
                 (A) (A) (A) (A) (A) (A) (A) (A) (A) (A) (A) (A)
                 (A) (A) (A) (A) (A) (A) (A) (A) (A) (A) (A) (A)
                 (A) (A) (A) (A) (A) (A) (A) (A) (A) (A) (A) (A)
                 (A) (A) (A) (A) (A) (A) (A) (A) (A) (A) (A) (A)
                 (A) (A) (A) (A) (A) (A) (A) (A) (A) (A) (A) (A)
                 (A) (A) (A) (A) (A) (A) (A) (A) (A) (A) (A) (A)
                 (A) (A) (A) (A) (A) (A) (A) (A) (A) (A) (A) (A)
                 (A) (A) (A) (A) (A) (A) (A) (A) (A) (A) (A) (A)
                 (A) (A) (A) (A) (A) (A) (A) (A) (A) (A) (A) (A)
                 (A) (A) (A) (A) (A) (A) (A) (A) (A) (A) (A) (A)
                 (A) (A) (A) (A) (A) (A) (A) (A) (A) (A) (A) (A)
                 (A) (A) (A) (A) (A) (A) (A) (A) (A) (A) (A) (A)
                 (A) (A) (A) (A) (A) (A) (A) (A) (A) (A) (A) (A)
                 (A) (A) (A) (A) (A) (A) (A) (A) (A) (A) (A) (A)
                 (A) (A) (A) (A) (A) (A) (A) (A) (A) (A) (A) (A)
                 (A) (A) (A) (A) (A) (A) (A) (A) (A) (A) (A) (A)
                 (A) (A) (A) (A) (A) (A) (A) (A) (A) (A) (A) (A)
                 (A) (A) (A) (A) (A) (A) (A) (A) (A) (A) (A) (A)
                 (A) (A) (A) (A) (A) (A) (A) (A) (A) (A) (A) (A)
                 (A) (A) (A) (A) (A) (A) (A) (A) (A) (A) (A) (A)
                 (A) (A) (A) (A) (A) (A) (A) (A) (A) (A) (A) (A)
                 (A) (A) (A) (A) (A) (A) (A) (A) (A) (A) (A) (A)
                 (A) (A) (A) (A) (A) (A) (A) (A) (A) (A) (A) (A)
                 (A) (A) (A) (A) (A) (A) (A) (A) (A) (A) (A) (A)
                 (A) (A) (A) (A) (A) (A) (A) (A) (A) (A) (A) (A)
                 (A) (A) (A) (A) (A) (A) (A) (A) (A) (A) (A) (A)
                 (A) (A) (A) (A) (A) (A) (A) (A) (A) (A) (A) (A)
                 (A) (A) (A) (A) (A) (A) (A) (A) (A) (A) (A) (A)
                 (A) (A) (A) (A) (A) (A) (A) (A) (A) (A) (A) (A)
                 (A) (A) (A) (A) (A) (A) (A) (A) (A) (A) (A) (A)
                 (A) (A) (A) (A) (A) (A) (A) (A) (A) (A) (A) (A)
                 (A) (A) (A) (A) (A) (A) (A) (A) (A) (A) (A) (A)
                 (A) (A) (A) (A) (A) (A) (A) (A) (A) (A) (A) (A)
                 (A) (A) (A) (A) (A) (A) (A) (A) (A) (A) (A) (A)
                 (A) (A) (A) (A) (A) (A) (A) (A) (A) (A) (A) (A)
                 (A) (A) (A) (A) (A) (A) (A) (A) (A) (A) (A) (A)
                 (A) (A) (A) (A) (A) (A) (A) (A) (A) (A) (A)
 Beta  Orbitals:
       Occupied  (A) (A) (A) (A) (A) (A) (A) (A) (A) (A) (A) (A)
                 (A) (A) (A) (A) (A) (A) (A) (A) (A) (A) (A) (A)
                 (A) (A) (A) (A) (A) (A) (A) (A) (A) (A) (A) (A)
                 (A) (A) (A) (A) (A) (A) (A) (A) (A) (A) (A) (A)
                 (A) (A) (A) (A) (A) (A) (A) (A) (A) (A) (A) (A)
                 (A) (A) (A) (A) (A) (A) (A) (A) (A) (A) (A) (A)
                 (A) (A) (A) (A) (A) (A) (A) (A) (A) (A) (A) (A)
                 (A) (A) (A) (A) (A) (A) (A) (A) (A) (A) (A) (A)
                 (A) (A) (A) (A) (A) (A) (A) (A) (A) (A) (A) (A)
                 (A) (A) (A) (A) (A) (A) (A) (A) (A) (A) (A) (A)
                 (A) (A) (A) (A) (A) (A) (A) (A) (A) (A) (A) (A)
                 (A) (A) (A) (A) (A) (A) (A) (A) (A) (A) (A) (A)
                 (A) (A) (A) (A) (A) (A) (A) (A) (A) (A) (A) (A)
                 (A) (A) (A) (A) (A) (A) (A) (A) (A) (A) (A) (A)
                 (A) (A) (A) (A) (A) (A) (A) (A) (A) (A) (A) (A)
                 (A) (A) (A) (A) (A) (A) (A) (A) (A) (A) (A) (A)
                 (A) (A) (A) (A) (A) (A) (A) (A) (A) (A) (A) (A)
                 (A)
       Virtual   (A) (A) (A) (A) (A) (A) (A) (A) (A) (A) (A) (A)
                 (A) (A) (A) (A) (A) (A) (A) (A) (A) (A) (A) (A)
                 (A) (A) (A) (A) (A) (A) (A) (A) (A) (A) (A) (A)
                 (A) (A) (A) (A) (A) (A) (A) (A) (A) (A) (A) (A)
                 (A) (A) (A) (A) (A) (A) (A) (A) (A) (A) (A) (A)
                 (A) (A) (A) (A) (A) (A) (A) (A) (A) (A) (A) (A)
                 (A) (A) (A) (A) (A) (A) (A) (A) (A) (A) (A) (A)
[...]
 032,0.00000057,-0.00000061,0.00000133,-0.00000038,-0.00000776,-0.00002
 485,-0.00000196,0.00000089,-0.00000131,-0.00002052,0.00002051,-0.00000
 826,0.00205264,0.00231732,-0.00622413,0.00007997,-0.00013361,-0.000160
 61,0.00007069,-0.00018594,-0.00002173,-0.00001767,-0.00000703,0.000055
 52,-0.00001051,0.00001237,0.00004873,-0.00000256,-0.00000200,0.0000022
 0,0.00000822,0.00000223,0.00004001,0.00000111,-0.00000307,-0.00000579,
 0.00000134,0.00000202,0.00000876,0.00000002,-0.00000089,-0.00000164,0.
 00044242,0.00058273,0.00125120,-0.00022054,-0.00004475,-0.00005555,0.0
 0002180,0.00000583,-0.00004076,0.00000069,0.00000146,0.00000192,-0.000
 01267,0.00001383,-0.00000273,-0.00000132,0.00000032,-0.00000144,0.0000
 3420,-0.00001098,0.00007280,-0.00003285,-0.00004124,0.00000346,-0.0000
 0227,-0.00000194,0.00000196,0.00000046,-0.00000235,0.00000003,0.000000
 32,0.00000202,-0.00000028,0.00000201,0.00002609,0.00008709,0.00000024,
 0.00000010,0.00000322,-0.00000090,0.00000158,-0.00000137,0.00000014,-0
 .00000022,-0.00000007,0.00000037,0.00000006,-0.00000002,-0.00000082,0.
 00000018,0.00000064,-0.03354090,-0.00390074,-0.01448524,-0.00000156,-0
 .00000032,0.00000052,-0.00000030,0.00000073,-0.00000010,0.00000028,0.0
 0000003,-0.00000034,0.00000002,-0.00000006,-0.00000008,-0.00000106,-0.
 00000194,-0.00000135,-0.00000086,-0.00000001,0.00000078,0.00000036,0.,
 -0.00000003,0.00000024,0.00000024,0.00000002,-0.00000112,0.00000190,0.
 00000159,0.00000027,0.00000012,0.00000005,0.00000018,-0.00000020,-0.00
 000040,-0.00000086,-0.00000008,-0.00000079,-0.00000127,0.00000035,-0.0
 0000004,0.00000013,0.00000003,-0.00000019,0.00000015,-0.00000005,0.000
 00013,-0.00000038,-0.00000070,0.00000010,-0.00000095,-0.00000170,0.000
 00182,-0.00000090,-0.00000010,-0.00000082,0.00000017,0.00000004,-0.000
 00019,0.00000021,0.00000017,0.00000007,-0.00002854,0.00002675,-0.00000
 619,0.00000205,-0.00000136,0.00000239,0.00000317,-0.00000268,-0.000003
 63,0.00000147,-0.00000403,-0.00000325,0.03936580,-0.05981450,0.0309914
 0,-0.00142194,0.00113621,-0.00165048,-0.02589364,0.06132193,0.00001641
 ,0.00051981,0.00002116,0.00001076,0.00004458,0.00006450,0.00000541,-0.
 00000502,-0.00000067,-0.00015307,-0.00023413,-0.00000536,0.00001224,0.
 00000106,0.00000213,0.00002822,-0.00006355,-0.00000528,0.00000930,-0.0
 0004376,0.00002974,0.00000440,0.00000373,-0.00000123,0.00032366,0.0001
 1706,-0.00026662,-0.00000546,0.00000447,0.00000102,-0.00000169,0.00000
 135,-0.00000453,0.00001353,-0.00001021,-0.00000170,-0.00030753,-0.0001
 9224,0.00024613,0.00022919,-0.00021440,-0.00001626,-0.00060506,-0.0005
 6666,0.00028890,-0.00001109,0.00002571,0.00000100,0.00000814,0.0000028
 8,0.00000006,-0.00001382,-0.00000135,-0.00002860,-0.00000435,-0.000003
 52,-0.00000182,-0.00000100,-0.00000062,-0.00000006,-0.00000056,0.00000
 250,0.00000043,-0.00000048,0.00000048,-0.00000056,-0.00000239,0.000002
 23,-0.00000065,-0.00000059,0.00000029,0.00000023,-0.00000785,-0.000010
 75,0.00000513,0.00000089,0.00000006,-0.00000074,-0.00008568,0.00006561
 ,-0.00010280,-0.00000435,0.00000061,0.00000494,-0.00003460,0.00008035,
 0.00013732,0.00000375,0.00000103,0.00000042,0.00006837,0.00058166,-0.0
 0019091,0.00006315,-0.00001747,0.00001229,0.00000657,0.00003540,-0.000
 06812,0.00000128,-0.00000127,0.00000060,-0.00000627,0.00001103,0.00003
 196,-0.00003730,0.00004687,0.00001687,-0.00000485,-0.00000640,-0.00000
 159,-0.00000189,-0.00000102,-0.00000087,0.00001645,-0.00001733,0.00000
 910,0.00000087,0.00000039,-0.00000002,-0.00000051,-0.00000810,-0.00002
 237,-0.00000075,0.00000118,-0.00000097,-0.00002137,0.00002021,-0.00000
 601,0.00120227,-0.00082608,0.00051662,0.00006978,-0.00012128,-0.000144
 74,0.00044594,0.00109229,-0.00071755,0.00002600,-0.00002776,0.00003077
 ,-0.00000280,-0.00000306,-0.00000221,0.00000036,-0.00000039,0.00000053
 ,0.00001399,-0.00000294,0.00004715,0.00000128,-0.00000247,-0.00000586,
 0.00000022,0.00000330,0.00000765,0.00000025,-0.00000058,-0.00000140,-0
 .00011653,-0.00074407,0.00093387,0.00160324,-0.00021951,-0.00061326,0.
 00001473,0.00000928,-0.00001626,-0.00000005,0.00000008,-0.00000002,-0.
 00001147,0.00001134,-0.00000258,-0.00000069,0.00000075,-0.00000112,0.0
 0002840,-0.00001076,0.00006218,-0.00000771,-0.00000832,0.00000180,0.00
 000001,-0.00000075,0.00000038,0.00000042,-0.00000091,-0.00000038,0.000
 00013,0.00000182,0.00000010,0.00000690,0.00001771,0.00007148,-0.000000
 53,-0.00000037,0.00000310,-0.00000037,0.00000065,-0.00000097,0.0000001
 0,0.,0.00000016,0.00000008,-0.00000013,0.00000005,-0.00000051,0.000000
 13,0.00000041,0.00515302,-0.00315241,0.00722401,-0.00000059,-0.0000002
 6,-0.00000007,-0.00000031,0.00000044,-0.00000005,0.00000002,-0.0000000
 3,0.00000023,0.00000013,0.00000007,-0.00000003,-0.00000089,-0.00000174
 ,-0.00000129,-0.00000076,0.00000008,0.00000072,0.00000019,0.00000003,-
 0.00000008,0.00000019,0.00000009,0.00000015,-0.00000056,0.00000105,0.0
 0000053,0.00000017,-0.00000004,0.00000005,0.00000025,-0.00000011,0.000
 00010,-0.00000054,0.00000005,-0.00000043,-0.00000108,0.00000038,-0.000
 00004,0.00000017,-0.00000006,-0.00000006,0.00000008,0.,0.00000014,-0.0
 0000033,-0.00000059,0.00000008,-0.00000076,-0.00000138,0.00000152,-0.0
 0000076,-0.00000011,-0.00000065,0.00000012,0.00000014,-0.00000009,0.00
 000021,0.00000011,-0.00000003,-0.00002560,0.00002300,-0.00000524,0.000
 00192,-0.00000119,0.00000239,0.00000290,-0.00000234,-0.00000328,0.0000
 0148,-0.00000343,-0.00000283,-0.12922766,0.02781157,-0.15764389,-0.022
 35592,0.00536324,-0.01292718,0.13712909,-0.02789317,0.15793376,0.00011
 759,0.00009605,0.00004986,0.00001096,0.00003143,0.00002789,0.00000391,
 -0.00000551,-0.00000570,-0.00004421,-0.00005655,-0.00000461,-0.0000258
 4,0.00000801,-0.00000199,0.00002163,-0.00002974,-0.00000877,-0.0000540
 5,-0.00000716,-0.00001136,0.00000809,0.00001179,-0.00000027,0.00018215
 ,0.00002281,-0.00015956,0.00000586,-0.00000499,0.00000695,0.00001092,-
 0.00000684,-0.00000380,0.00000618,-0.00001722,0.00000141,-0.00008760,0
 .00000986,-0.00066243,0.00007793,-0.00011631,-0.00002148,0.00004911,0.
 00031518,0.00050731,-0.00000254,0.00001571,-0.00000248,0.00000441,0.00
 000128,-0.00000104,0.00000748,0.00000005,-0.00000772,-0.00000526,-0.00
 000055,0.00000059,-0.00000109,-0.00000090,0.00000015,-0.00000337,-0.00
 000023,-0.00000052,-0.00000058,0.00000042,0.00000054,-0.00000394,0.000
 00148,-0.00000023,-0.00000066,0.00000051,-0.00000026,0.00001879,0.0000
 2192,-0.00001001,-0.00000093,-0.00000039,-0.00000083,-0.00005006,0.000
 03134,-0.00004132,-0.00000225,0.00000213,0.00000122,-0.00001779,0.0000
 4464,0.00006661,0.00000160,0.00000197,-0.00000014,-0.00132942,-0.00034
 359,0.00036874,0.00015302,-0.00000717,0.00004833,-0.00002308,-0.000006
 03,0.00001648,0.00000104,-0.00000108,0.00000036,-0.00002886,-0.0000263
 9,0.00002138,-0.00002484,0.00002700,0.00001210,-0.00000145,-0.00000309
 ,0.00000156,-0.00000093,-0.00000052,0.00000019,0.00000916,-0.00000612,
 0.00000519,-0.00000018,-0.00000041,0.00000103,-0.00000056,-0.00000331,
 -0.00001235,-0.00000082,0.00000026,-0.00000056,-0.00000915,0.00000995,
 -0.00000530,0.00378644,-0.00008823,-0.00410881,0.00003962,-0.00006736,
 -0.00007950,-0.00061408,-0.00016795,0.00007347,0.,-0.00001373,0.000040
 74,-0.00000574,0.00000830,0.00003421,-0.00000165,-0.00000143,0.0000014
 6,0.00000367,0.00000072,0.00001888,0.00000026,-0.00000199,-0.00000286,
 0.00000137,0.00000040,0.00000469,-0.00000016,-0.00000059,-0.00000082,0
 .00037601,0.00083697,0.00083402,0.00009923,-0.00075057,0.00049277,0.00
 000959,0.00000209,-0.00002408,0.00000023,0.00000123,0.00000120,-0.0000
 0629,0.00000728,-0.00000093,-0.00000073,0.00000018,-0.00000057,0.00001
 753,-0.00000500,0.00003643,-0.00002022,-0.00002612,0.00000192,-0.00000
 138,-0.00000134,0.00000134,0.00000024,-0.00000115,0.00000018,0.0000002
 8,0.00000107,-0.00000025,0.00000018,0.00001485,0.00004330,0.00000030,-
 0.00000009,0.00000165,-0.00000049,0.00000084,-0.00000076,0.00000007,-0
 .00000010,-0.00000011,0.00000017,-0.00000006,0.00000004,-0.00000043,0.
 00000012,0.00000037,0.00794275,-0.03293969,-0.00203241,-0.00000063,-0.
 00000011,0.00000020,-0.00000012,0.00000037,-0.00000007,0.00000005,0.00
 000008,0.00000009,-0.00000008,-0.00000008,-0.00000030,-0.00000059,-0.0
 0000100,-0.00000070,-0.00000045,-0.00000002,0.00000040,0.00000024,-0.0
 0000007,-0.00000002,0.00000013,0.00000016,0.,-0.00000055,0.00000101,0.
 00000087,0.00000008,-0.00000002,0.00000006,0.00000004,-0.00000003,-0.0
 0000018,-0.00000042,-0.00000005,-0.00000049,-0.00000072,0.00000017,-0.
 00000001,0.00000006,0.00000002,-0.00000008,0.00000010,-0.00000005,0.00
 000002,-0.00000018,-0.00000038,0.00000005,-0.00000056,-0.00000086,0.00
 000096,-0.00000047,-0.00000003,-0.00000044,0.00000010,0.00000001,-0.00
 000013,0.00000012,0.00000006,0.00000006,-0.00001485,0.00001315,-0.0000
 0273,0.00000098,-0.00000073,0.00000113,0.00000183,-0.00000129,-0.00000
 192,0.00000080,-0.00000194,-0.00000161,-0.11408561,0.11449281,0.024425
 22,-0.00258377,0.00647587,-0.00022041,-0.00731790,0.01940421,0.0065423
 1,0.11340527,0.00011793,0.00046660,0.00014140,0.00003818,0.00010647,0.
 00012328,0.00000849,-0.00001158,-0.00001236,-0.00021609,-0.00031757,-0
 .00002128,-0.00001254,0.00001788,-0.00000663,0.00003920,-0.00008038,-0
 .00002582,-0.00006768,-0.00004716,0.00000415,0.00001911,0.00001849,-0.
 00000112,0.00052093,0.00034237,-0.00066572,-0.00000098,-0.00000953,0.0
 0000977,0.00001413,-0.00001335,-0.00000094,0.00002191,-0.00003412,0.00
 000022,-0.00003889,-0.00012894,-0.00095864,0.00023406,-0.00023877,-0.0
 0003754,-0.00050230,-0.00011692,0.00115291,-0.00001206,0.00004249,-0.0
 0000216,0.00001075,0.00000390,-0.00000107,0.00000894,-0.00000862,-0.00
 002217,-0.00001140,-0.00000320,-0.00000042,-0.00000267,-0.00000193,0.0
 0000027,-0.00000425,0.00000080,0.00000018,-0.00000309,0.00000200,0.000
 00046,-0.00000917,0.00000763,-0.00000071,-0.00000153,0.00000113,-0.000
 00010,0.00004098,0.00003907,-0.00001986,0.00000005,-0.00000113,-0.0000
 0181,-0.00010519,0.00007118,-0.00010982,-0.00000700,0.00000571,0.00000
 281,-0.00004018,0.00009729,0.00016624,0.00000627,0.00000293,0.00000007
 ,-0.00147160,-0.00085956,0.00105885,0.00021105,0.00006406,0.00004776,-
 0.00001848,-0.00000046,-0.00000859,0.00000097,-0.00000391,0.00000121,-
 0.00007820,-0.00005639,0.00007829,-0.00005731,0.00007371,0.00002573,-0
 .00000844,-0.00000949,0.00000119,-0.00000276,-0.00000167,-0.00000041,0
 .00002274,-0.00001953,0.00001222,0.00000076,-0.00000086,0.00000217,-0.
 00000066,-0.00000930,-0.00003012,-0.00000286,0.00000135,-0.00000211,-0
 .00002460,0.00002319,-0.00000969,0.00398930,0.00132833,-0.00782472,0.0
 0008735,-0.00015061,-0.00019578,0.00059730,0.00037235,-0.00032498,-0.0
 0003639,0.00000485,0.00005012,-0.00001696,0.00002002,0.00007719,-0.000
 00365,-0.00000299,0.00000331,0.00001046,0.00000101,0.00004932,0.000002
 37,-0.00000246,-0.00000692,0.00000071,0.00000346,0.00001095,0.00000029
 ,-0.00000082,-0.00000221,-0.00025502,0.00037809,0.00142132,-0.00000902
 ,0.00022350,0.00049246,0.00003867,0.00001526,-0.00006967,0.00000093,0.
 00000215,0.00000288,-0.00001573,0.00001656,-0.00000447,-0.00000157,0.0
 0000057,-0.00000212,0.00004320,-0.00001758,0.00009224,-0.00005345,-0.0
 0006826,0.00000405,-0.00000282,-0.00000337,0.00000313,0.00000079,-0.00
 000348,-0.00000004,0.00000047,0.00000316,-0.00000029,0.00000267,0.0000
 2602,0.00010052,0.00000074,0.00000076,0.00000338,-0.00000137,0.0000023
 2,-0.00000217,0.00000022,-0.00000032,0.00000015,0.00000059,0.00000022,
 -0.00000010,-0.00000123,0.00000023,0.00000092,-0.00494951,-0.03190782,
 0.00177588,-0.00000260,-0.00000065,0.00000064,-0.00000040,0.00000115,-
 0.00000018,0.00000043,0.00000004,-0.00000084,0.00000016,0.00000006,0.0
 0000037,-0.00000164,-0.00000312,-0.00000217,-0.00000139,-0.00000002,0.
 00000127,0.00000047,0.00000012,-0.00000007,0.00000039,0.00000029,0.000
 00009,-0.00000167,0.00000282,0.00000230,0.00000051,0.00000032,0.000000
 07,0.00000026,-0.00000034,-0.00000059,-0.00000126,-0.00000010,-0.00000
 111,-0.00000195,0.00000062,-0.00000010,0.00000024,0.00000001,-0.000000
 29,0.00000019,-0.00000005,0.00000029,-0.00000062,-0.00000111,0.0000001
 4,-0.00000139,-0.00000267,0.00000286,-0.00000143,-0.00000021,-0.000001
 28,0.00000024,0.00000007,-0.00000023,0.00000032,0.00000032,0.00000005,
 -0.00003542,0.00003453,-0.00000898,0.00000269,-0.00000174,0.00000346,0
 .00000384,-0.00000345,-0.00000451,0.00000192,-0.00000559,-0.00000385,0
 .10742480,-0.24690496,-0.04146358,0.00011669,0.00277802,0.00032131,0.0
 0165038,-0.00040291,-0.00148411,-0.10719960,0.27485357,0.00001315,0.00
 051993,-0.00001947,0.00000687,0.00002517,0.00004326,0.00000455,-0.0000
 0374,0.00000091,-0.00011220,-0.00017847,0.00001244,0.00000784,-0.00000
 568,0.00000063,0.00002656,-0.00005660,-0.00000757,0.00001232,-0.000036
 83,0.00003074,0.00000373,0.00000322,-0.00000040,0.00009678,0.00014807,
 -0.00020363,-0.00000724,0.00000478,-0.00000005,-0.00000373,0.00000132,
 -0.00000173,0.00001074,-0.00000760,-0.00000146,-0.00023981,-0.00030480
 ,0.00037418,0.00022237,-0.00022753,-0.00001512,-0.00047045,-0.00046566
 ,0.00016859,-0.00000710,0.00002167,0.00000133,0.00000730,0.00000276,0.
 00000012,-0.00001254,0.00000028,-0.00002787,-0.00000294,-0.00000231,-0
 .00000222,-0.00000082,-0.00000045,0.00000012,0.00000079,0.00000111,-0.
 00000012,-0.00000064,0.00000073,0.00000031,-0.00000259,0.00000304,-0.0
 0000101,-0.00000049,0.00000034,0.00000040,-0.00001056,-0.00001674,0.00
 000868,0.00000126,-0.00000015,-0.00000027,-0.00009268,0.00006494,-0.00
 010162,-0.00000361,-0.00000013,0.00000550,-0.00003369,0.00008129,0.000
 13755,0.00000347,-0.00000007,0.00000053,0.00059377,0.00035114,-0.00024
 616,-0.00001065,0.00000876,-0.00000344,0.00002766,0.00002008,-0.000058
 15,-0.00000046,-0.00000183,0.00000061,0.00000512,0.00001836,0.00002056
 ,-0.00003537,0.00004158,0.00001534,-0.00000538,-0.00000489,-0.00000164
 ,-0.00000140,-0.00000076,-0.00000088,0.00001817,-0.00001638,0.00000999
 ,-0.00000028,-0.00000037,0.00000139,0.00000022,-0.00000729,-0.00002349
 ,-0.00000197,0.00000071,-0.00000119,-0.00002000,0.00001904,-0.00000445
 ,-0.00089113,0.00069689,0.00055262,0.00007443,-0.00012212,-0.00014329,
 0.00094167,0.00026389,-0.00033745,-0.00004312,0.00002553,0.00001092,-0
 .00000226,-0.00000462,-0.00001270,0.00000029,0.00000023,0.00000007,0.0
 0001174,-0.00000082,0.00004468,0.00000142,-0.00000178,-0.00000532,0.00
 000003,0.00000359,0.00000762,0.00000023,-0.00000062,-0.00000122,-0.000
 83391,0.00032540,0.00036582,-0.00009161,0.00079274,-0.00180195,0.00000
 779,0.00000610,-0.00000590,-0.00000002,-0.00000030,-0.00000022,-0.0000
 1156,0.00001208,-0.00000330,-0.00000098,0.00000023,-0.00000113,0.00002
 578,-0.00000872,0.00005973,-0.00000018,0.00000117,0.00000194,0.0000003
 3,-0.00000041,0.00000008,0.00000040,-0.00000091,-0.00000027,0.00000002
 ,0.00000138,0.00000018,0.00000487,0.00001848,0.00007382,-0.00000043,0.
 00000027,0.00000281,-0.00000036,0.00000065,-0.00000045,0.00000006,-0.0
 0000006,-0.00000007,0.00000018,0.00000010,-0.00000010,-0.00000031,0.00
 000006,0.00000025,-0.00194015,0.00451406,0.00226384,-0.00000090,-0.000
 00015,0.00000049,-0.00000010,0.00000032,-0.00000005,0.00000024,0.00000
 004,-0.00000036,0.00000003,0.,-0.00000005,-0.00000070,-0.00000135,-0.0
 0000097,-0.00000055,0.00000006,0.00000057,0.00000012,0.00000010,-0.000
 00002,0.00000013,0.00000004,0.00000005,-0.00000058,0.00000079,0.000000
 90,0.00000015,0.00000013,-0.00000003,0.00000001,-0.00000014,-0.0000003
 1,-0.00000037,-0.00000007,-0.00000033,-0.00000080,0.00000027,-0.000000
 05,0.00000010,0.,-0.00000014,0.00000007,0.,0.00000017,-0.00000024,-0.0
 0000042,0.00000007,-0.00000053,-0.00000116,0.00000120,-0.00000056,-0.0
 0000007,-0.00000053,0.00000010,0.00000002,-0.00000007,0.00000011,0.000
 00015,0.00000003,-0.00002324,0.00002195,-0.00000536,0.00000171,-0.0000
 0106,0.00000225,0.00000228,-0.00000230,-0.00000316,0.00000124,-0.00000
 326,-0.00000283,0.02452984,-0.04460814,-0.06356626,0.01303312,-0.02529
 710,-0.00116829,-0.00852699,0.01727427,0.00510545,-0.02625298,0.046094
 57,0.05845538\\0.00002353,0.00002485,-0.00001446,-0.00000618,-0.000002
 34,-0.00001039,0.00002133,-0.00004643,-0.00001186,0.00002263,-0.000042
 31,-0.00003071,-0.00008478,-0.00001328,-0.00002418,0.00002230,-0.00003
 020,0.00001980,0.00001501,0.00002765,0.00000594,-0.00000854,-0.0000040
 5,-0.00001472,0.00003898,0.00000184,-0.00002154,-0.00005144,0.00003308
 ,0.00002003,-0.00002024,0.00000907,-0.00001524,-0.00000362,-0.00000884
 ,0.00000708,0.00005661,-0.00004461,-0.00000545,0.00000099,-0.00001178,
 0.00002636,0.00002083,0.00001704,0.00003156,-0.00000347,0.00000262,0.0
 0001120,-0.00000403,0.00000143,0.00002517,0.00000108,0.00000031,-0.000
 00536,0.00000582,0.00000556,0.00002812,-0.00000334,-0.00000712,0.00000
 037,-0.00000849,-0.00000224,-0.00000337,-0.00000088,0.00000413,-0.0000
 0304,0.00000648,-0.00000391,-0.00003349,0.00000048,0.00000550,0.000004
 86,-0.00000032,0.00001151,0.00000038,-0.00000868,0.00000402,-0.0000147
 4,-0.00002265,0.00001302,-0.00000496,0.00001076,-0.00000325,0.00001555
 ,-0.00001677,0.00000367,-0.00000936,0.00000172,0.00000513,-0.00000482,
 0.00001594,0.00000527,-0.00001908,-0.00000160,-0.00000495,0.00000318,-
 0.00000684,0.00001199,0.00000544,0.00000556,0.00000825,-0.00000861,0.0
 0000733,0.00000652,-0.00001228,-0.00000470,0.00000449,0.00000863,-0.00
 000195,-0.00000307,0.00000377,0.00000014,0.00000136,0.00000569,0.00000
 190,-0.00001014,0.00001872,-0.00000926,0.00000619,0.00000588,0.0000023
 1,-0.00001002,-0.00000821,0.00000117,-0.00000624,0.00000098,-0.0000113
 4,0.00000455,-0.00000331,-0.00000364,-0.00001044,-0.00002233,-0.000002
 73,-0.00002905,-0.00001288,-0.00000678,0.00000299,0.00000158,0.0000009
 1,0.00000184,-0.00000344,0.00000190,0.00001450,0.00000052,-0.00000155,
 0.00000253,0.00000051,0.00000150,0.00000334,0.00000195,-0.00000182,0.0
 0000319,0.00001641,-0.00000053,0.00000162,0.00000795,-0.00001305,0.000
 01447,0.00000399,0.00000006,0.00000359,0.00001024,-0.00000195,-0.00000
 005,-0.00000438,0.00000055,0.00000372,0.00000554,-0.00000088,0.0000081
 6,-0.00000280,-0.00000061,-0.00000811,0.00000040,0.00000283,-0.0000098
 0,-0.00000146,0.00002912,0.00003143,-0.00000279,-0.00000162,0.00000431
 ,-0.00000540,-0.00000060,0.00000858,0.00000055,-0.00000090,0.00000265,
 0.00000230,0.00000252,-0.00000194,0.00000960,0.00001056,0.00001388,0.0
 0004597,-0.00000798,0.00000091,-0.00000517,-0.00000214,0.00000127,-0.0
 0000690,-0.00000036,0.00000302,-0.00000394,-0.00000144,0.00000465,-0.0
 0000006,0.00000022,0.00000161,-0.00000533,0.00000570,-0.00001014,0.000
 00695,0.00000846,-0.00000383,0.00000017,-0.00000026,-0.00000067,-0.000
 00793,0.00000261,-0.00000355,-0.00000658,0.00000047,-0.00000104,-0.000
 00925,0.00000071,0.00000284,0.00000465,-0.00000091,0.00000221,0.000003
 92,-0.00000050,0.00000282,0.00000049,-0.00000114,0.00000339,0.00000252
 ,0.00000079,-0.00000951,-0.00000622,0.00000022,0.00000141,-0.00000274,
 0.00000252,-0.00000281,-0.00000779,0.00000026,0.00000033,-0.00000551,-
 0.00000436,0.00000233,0.00000172,0.00000026,0.00000128,0.00000907,0.00
 000124,-0.00000113,0.00000814,-0.00000133,0.00000051,0.00000691,-0.000
 00326,0.00000172,0.00000052,-0.00000051,-0.00000142,0.00000409,0.00000
 038,-0.00000246,0.00000487,-0.00000223,-0.00000228,0.00000280,-0.00001
 132,-0.00000910,0.00000566,-0.00000344,0.00000341,0.00000770,0.0000027
 0,0.00000345,0.00000432,-0.00000410,-0.00000372,-0.00000633,0.00000332
 ,-0.00000192,-0.00001173,0.00000125,-0.00000555,-0.00000314,-0.0000001
 7,-0.00000264,-0.00000560,-0.00000275,-0.00000107,-0.00000181\\\@
 The archive entry for this job was punched.


 TWO ROADS DIVERGED IN A WOOD, AND I--
 I TOOK THE ONE LESS TRAVELED BY,
 AND THAT HAS MADE ALL THE DIFFERENCE.

                       -- ROBERT FROST
 Job cpu time:       5 days 14 hours 51 minutes 58.8 seconds.
 Elapsed time:       0 days  4 hours 33 minutes 26.7 seconds.
 File lengths (MBytes):  RWF=  17489 Int=      0 D2E=      0 Chk=    119 Scr=      1
 Normal termination of Gaussian 16 at Sat Aug 30 01:35:59 2025.
