 Entering Gaussian System, Link 0=g16
 Input=C5.gau
 Output=C5.log
 Initial command:
 /apps/gaussian/g16c01/g16/l1.exe "/jobfs/148117178.gadi-pbs/Gau-1607445.inp" -scrdir="/jobfs/148117178.gadi-pbs/"
 Default is to use a total of  30 processors:
                               30 via shared-memory
                                1 via Linda
 Entering Link 1 = /apps/gaussian/g16c01/g16/l1.exe PID=   1607446.
  
 Copyright (c) 1988-2019, Gaussian, Inc.  All Rights Reserved.
  
 This is part of the Gaussian(R) 16 program.  It is based on
 the Gaussian(R) 09 system (copyright 2009, Gaussian, Inc.),
 the Gaussian(R) 03 system (copyright 2003, Gaussian, Inc.),
 the Gaussian(R) 98 system (copyright 1998, Gaussian, Inc.),
 the Gaussian(R) 94 system (copyright 1995, Gaussian, Inc.),
 the Gaussian 92(TM) system (copyright 1992, Gaussian, Inc.),
 the Gaussian 90(TM) system (copyright 1990, Gaussian, Inc.),
 the Gaussian 88(TM) system (copyright 1988, Gaussian, Inc.),
 the Gaussian 86(TM) system (copyright 1986, Carnegie Mellon
 University), and the Gaussian 82(TM) system (copyright 1983,
 Carnegie Mellon University). Gaussian is a federally registered
 trademark of Gaussian, Inc.
  
 This software contains proprietary and confidential information,
 including trade secrets, belonging to Gaussian, Inc.
  
 This software is provided under written license and may be
 used, copied, transmitted, or stored only in accord with that
 written license.
  
 The following legend is applicable only to US Government
 contracts under FAR:
  
                    RESTRICTED RIGHTS LEGEND
  
 Use, reproduction and disclosure by the US Government is
 subject to restrictions as set forth in subparagraphs (a)
 and (c) of the Commercial Computer Software - Restricted
 Rights clause in FAR 52.227-19.
  
 Gaussian, Inc.
 340 Quinnipiac St., Bldg. 40, Wallingford CT 06492
  
  
 ---------------------------------------------------------------
 Warning -- This program may not be used in any manner that
 competes with the business of Gaussian, Inc. or will provide
 assistance to any competitor of Gaussian, Inc.  The licensee
 of this program is prohibited from giving any competitor of
 Gaussian, Inc. access to this program.  By using this program,
 the user acknowledges that Gaussian, Inc. is engaged in the
 business of creating and licensing software in the field of
 computational chemistry and represents and warrants to the
 licensee that it is not a competitor of Gaussian, Inc. and that
 it will not use this program in any manner prohibited above.
 ---------------------------------------------------------------
  

 Cite this work as:
 Gaussian 16, Revision C.01,
 M. J. Frisch, G. W. Trucks, H. B. Schlegel, G. E. Scuseria, 
 M. A. Robb, J. R. Cheeseman, G. Scalmani, V. Barone, 
 G. A. Petersson, H. Nakatsuji, X. Li, M. Caricato, A. V. Marenich, 
 J. Bloino, B. G. Janesko, R. Gomperts, B. Mennucci, H. P. Hratchian, 
 J. V. Ortiz, A. F. Izmaylov, J. L. Sonnenberg, D. Williams-Young, 
 F. Ding, F. Lipparini, F. Egidi, J. Goings, B. Peng, A. Petrone, 
 T. Henderson, D. Ranasinghe, V. G. Zakrzewski, J. Gao, N. Rega, 
 G. Zheng, W. Liang, M. Hada, M. Ehara, K. Toyota, R. Fukuda, 
 J. Hasegawa, M. Ishida, T. Nakajima, Y. Honda, O. Kitao, H. Nakai, 
 T. Vreven, K. Throssell, J. A. Montgomery, Jr., J. E. Peralta, 
 F. Ogliaro, M. J. Bearpark, J. J. Heyd, E. N. Brothers, K. N. Kudin, 
 V. N. Staroverov, T. A. Keith, R. Kobayashi, J. Normand, 
 K. Raghavachari, A. P. Rendell, J. C. Burant, S. S. Iyengar, 
 J. Tomasi, M. Cossi, J. M. Millam, M. Klene, C. Adamo, R. Cammi, 
 J. W. Ochterski, R. L. Martin, K. Morokuma, O. Farkas, 
 J. B. Foresman, and D. J. Fox, Gaussian, Inc., Wallingford CT, 2019.
 
 ******************************************
 Gaussian 16:  ES64L-G16RevC.01  3-Jul-2019
                28-Aug-2025 
 ******************************************
 %chk=C5.chk
 Default route: Maxdisk=0MB
 ----------------------------------------------------------------------
 # opt(maxcycles=500) freq scf(maxcycle=500) Int(SuperFine) uwb97xd/Def
 2SVPP scrf=(smd,solvent=Acetonitrile)
 ----------------------------------------------------------------------
 1/6=500,18=20,19=15,26=6,38=1/1,3;
 2/9=110,12=2,17=6,18=5,40=1/2;
 3/5=43,7=202,11=2,25=1,30=1,70=32201,71=1,72=2,74=-58,75=-7,116=2/1,2,3;
 4//1;
 5/5=2,7=500,38=5,53=2/2;
 6/7=2,8=2,9=2,10=2,28=1/1;
 7//1,2,3,16;
 1/6=500,18=20,19=15,26=6/3(2);
 2/9=110/2;
 99//99;
 2/9=110/2;
 3/5=43,7=202,11=2,25=1,30=1,70=32205,71=1,72=2,74=-58,75=-7,116=2/1,2,3;
 4/5=5,16=3,69=1/1;
 5/5=2,7=500,38=5,53=2/2;
 7//1,2,3,16;
 1/6=500,18=20,19=15,26=6/3(-5);
 2/9=110/2;
 6/7=2,8=2,9=2,10=2,19=2,28=1/1;
 99/9=1/99;
 ----------
 OPT + Freq
 ----------
 Symbolic Z-matrix:
 Charge =  2 Multiplicity = 2
 Ir                   -0.1948    0.7025   -0.01169 
 N                     1.62713   1.22897  -0.88308 
 N                     0.9819   -0.84249   1.11002 
 N                    -2.05941   0.36466   0.85675 
 N                    -0.50765  -1.25095  -1.05974 
 C                     0.32144   2.21413   1.16078 
 C                    -1.3278    1.79274  -1.20768 
 C                     0.98148  -2.09505   0.62234 
 C                     2.22029   2.32131  -0.38649 
 C                    -0.88313   2.43342  -2.37862 
 H                     0.18547   2.49173  -2.60254 
 C                     3.34569   2.88844  -1.07058 
 C                     0.11184  -2.33304  -0.55961 
 C                    -3.07872   1.06528   0.34436 
 C                     1.59069   2.79726   0.86388 
 C                     2.15114   0.53348  -1.92557 
 H                     1.59964  -0.3529   -2.24321 
 C                    -2.72563   1.74913  -0.91659 
 C                     3.92747   2.13405  -2.13479 
 C                    -0.0658   -3.59269  -1.12903 
 H                     0.44514  -4.44736  -0.69076 
 C                    -0.36458   2.60211   2.32505 
 H                    -1.34257   2.17307   2.55753 
 C                     2.17726   3.65524   1.79881 
 H                     3.19004   4.03354   1.66719 
 C                     0.20871   3.50628   3.21234 
 H                    -0.32699   3.79697   4.12017 
 C                    -1.52198  -2.6117   -2.7366 
 H                    -2.18446  -2.6465   -3.60357 
 C                    -4.33917   1.08708   1.02624 
 C                    -1.30872  -1.38971  -2.12338 
 H                    -1.79175  -0.48441  -2.49832 
 C                    -2.21946  -0.46903   1.91758 
 H                    -1.33079  -1.007     2.25041 
 C                     1.75563  -3.09712   1.20441 
 H                     1.73715  -4.09677   0.77466 
 C                    -1.79768   2.96724  -3.2792 
 H                    -1.44592   3.45643  -4.19167 
 C                     5.07683   2.62774  -2.80729 
 H                     5.51957   2.02199  -3.60254 
 C                     3.87822   4.18166  -0.80028 
 H                     3.39299   4.84194  -0.08407 
 C                     2.51981  -1.51278   2.80767 
 H                     3.10281  -1.21062   3.67999 
 C                     1.73445  -0.56111   2.18089 
 H                     1.70076   0.46604   2.5513 
 C                     3.31038   0.92168  -2.53141 
 H                     3.73093   0.32642  -3.34448 
 C                     1.48777   4.00854   2.96033 
 H                     1.96476   4.67878   3.68024 
 C                    -3.63105   2.23643  -1.86262 
 H                    -4.70628   2.12119  -1.7321 
 C                    -5.39148   2.00113   0.73304 
 H                    -5.25212   2.78844  -0.00581 
 C                    -0.89237  -3.76264  -2.24294 
 C                    -4.52347   0.17779   2.11184 
 C                    -3.16776   2.84327  -3.032 
 H                    -3.89156   3.21616  -3.7614 
 C                     2.55139  -2.8266    2.32069 
 C                    -3.43075  -0.62369   2.52651 
 H                    -3.54171  -1.32402   3.35694 
 C                     4.97396   4.64724  -1.48684 
 H                     5.35679   5.64904  -1.27476 
 C                    -0.35364  -6.24274  -2.19947 
 H                     0.7371   -6.07305  -2.20939 
 H                    -0.54673  -7.19854  -2.71591 
 H                    -0.67925  -6.35794  -1.15093 
 C                    -5.77139   0.12605   2.78761 
 H                    -5.89751  -0.59329   3.60129 
 C                     3.41824  -3.88721   2.99796 
 C                    -1.11425  -5.11827  -2.91225 
 C                     5.59936   3.85404  -2.47863 
 H                     6.47961   4.23602  -3.00294 
 C                    -6.78414   0.98568   2.44076 
 H                    -7.74103   0.95044   2.96869 
 C                    -6.57838   1.94889   1.42384 
 H                    -7.36692   2.67065   1.19511 
 C                    -0.62417  -5.03108  -4.37 
 H                    -1.18556  -4.27739  -4.94889 
 H                    -0.76085  -6.00733  -4.86754 
 H                     0.44859  -4.7714   -4.41222 
 C                    -2.61939  -5.44475  -2.88783 
 H                    -2.99828  -5.48818  -1.85127 
 H                    -2.79471  -6.42798  -3.35873 
 H                    -3.2128   -4.69741  -3.44144 
 H                     3.6316   -5.21273   1.25839 
 C                     3.29968  -5.25246   2.31044 
 H                     2.26534  -5.63703   2.33557 
 H                     3.93939  -5.98261   2.83509 
 C                     4.88857  -3.4318    2.94624 
 H                     5.22879  -3.31082   1.9024 
 H                     5.53003  -4.18891   3.43054 
 H                     5.04293  -2.47437   3.47266 
 C                     2.96788  -4.02813   4.46443 
 H                     3.09995  -3.08825   5.02745 
 H                     3.56932  -4.80714   4.96519 
 H                     1.90513  -4.32259   4.52594 
 

 GradGradGradGradGradGradGradGradGradGradGradGradGradGradGradGradGradGrad
 Berny optimization.
 Initialization pass.
                           ----------------------------
                           !    Initial Parameters    !
                           ! (Angstroms and Degrees)  !
 --------------------------                            --------------------------
 ! Name  Definition              Value          Derivative Info.                !
 --------------------------------------------------------------------------------
 ! R1    R(1,2)                  2.0871         estimate D2E/DX2                !
 ! R2    R(1,3)                  2.2427         estimate D2E/DX2                !
 ! R3    R(1,4)                  2.0845         estimate D2E/DX2                !
 ! R4    R(1,5)                  2.2388         estimate D2E/DX2                !
 ! R5    R(1,6)                  1.9815         estimate D2E/DX2                !
 ! R6    R(1,7)                  1.9755         estimate D2E/DX2                !
 ! R7    R(2,9)                  1.3385         estimate D2E/DX2                !
 ! R8    R(2,16)                 1.3583         estimate D2E/DX2                !
 ! R9    R(3,8)                  1.3442         estimate D2E/DX2                !
 ! R10   R(3,45)                 1.3388         estimate D2E/DX2                !
 ! R11   R(4,14)                 1.3388         estimate D2E/DX2                !
 ! R12   R(4,33)                 1.3587         estimate D2E/DX2                !
 ! R13   R(5,13)                 1.3434         estimate D2E/DX2                !
 ! R14   R(5,31)                 1.3388         estimate D2E/DX2                !
 ! R15   R(6,15)                 1.428          estimate D2E/DX2                !
 ! R16   R(6,22)                 1.4059         estimate D2E/DX2                !
 ! R17   R(7,10)                 1.4069         estimate D2E/DX2                !
 ! R18   R(7,18)                 1.4285         estimate D2E/DX2                !
 ! R19   R(8,13)                 1.4866         estimate D2E/DX2                !
 ! R20   R(8,35)                 1.3937         estimate D2E/DX2                !
 ! R21   R(9,12)                 1.4339         estimate D2E/DX2                !
 ! R22   R(9,15)                 1.4786         estimate D2E/DX2                !
 ! R23   R(10,11)                1.0934         estimate D2E/DX2                !
 ! R24   R(10,37)                1.3901         estimate D2E/DX2                !
 ! R25   R(12,19)                1.4283         estimate D2E/DX2                !
 ! R26   R(12,41)                1.4245         estimate D2E/DX2                !
 ! R27   R(13,20)                1.3937         estimate D2E/DX2                !
 ! R28   R(14,18)                1.4773         estimate D2E/DX2                !
 ! R29   R(14,30)                1.4332         estimate D2E/DX2                !
 ! R30   R(15,24)                1.398          estimate D2E/DX2                !
 ! R31   R(16,17)                1.0912         estimate D2E/DX2                !
 ! R32   R(16,47)                1.3644         estimate D2E/DX2                !
 ! R33   R(18,51)                1.3972         estimate D2E/DX2                !
 ! R34   R(19,39)                1.4202         estimate D2E/DX2                !
 ! R35   R(19,47)                1.417          estimate D2E/DX2                !
 ! R36   R(20,21)                1.0879         estimate D2E/DX2                !
 ! R37   R(20,55)                1.3975         estimate D2E/DX2                !
 ! R38   R(22,23)                1.093          estimate D2E/DX2                !
 ! R39   R(22,26)                1.3905         estimate D2E/DX2                !
 ! R40   R(24,25)                1.0891         estimate D2E/DX2                !
 ! R41   R(24,49)                1.3962         estimate D2E/DX2                !
 ! R42   R(26,27)                1.0934         estimate D2E/DX2                !
 ! R43   R(26,49)                1.3971         estimate D2E/DX2                !
 ! R44   R(28,29)                1.0917         estimate D2E/DX2                !
 ! R45   R(28,31)                1.3838         estimate D2E/DX2                !
 ! R46   R(28,55)                1.4017         estimate D2E/DX2                !
 ! R47   R(30,53)                1.4244         estimate D2E/DX2                !
 ! R48   R(30,56)                1.428          estimate D2E/DX2                !
 ! R49   R(31,32)                1.0925         estimate D2E/DX2                !
 ! R50   R(33,34)                1.0908         estimate D2E/DX2                !
 ! R51   R(33,60)                1.3645         estimate D2E/DX2                !
 ! R52   R(35,36)                1.0883         estimate D2E/DX2                !
 ! R53   R(35,59)                1.3973         estimate D2E/DX2                !
 ! R54   R(37,38)                1.0935         estimate D2E/DX2                !
 ! R55   R(37,57)                1.3977         estimate D2E/DX2                !
 ! R56   R(39,40)                1.0933         estimate D2E/DX2                !
 ! R57   R(39,72)                1.3729         estimate D2E/DX2                !
 ! R58   R(41,42)                1.0883         estimate D2E/DX2                !
 ! R59   R(41,62)                1.3743         estimate D2E/DX2                !
 ! R60   R(43,44)                1.0919         estimate D2E/DX2                !
 ! R61   R(43,45)                1.3839         estimate D2E/DX2                !
 ! R62   R(43,59)                1.4015         estimate D2E/DX2                !
 ! R63   R(45,46)                1.0924         estimate D2E/DX2                !
 ! R64   R(47,48)                1.0919         estimate D2E/DX2                !
 ! R65   R(49,50)                1.0932         estimate D2E/DX2                !
 ! R66   R(51,52)                1.0892         estimate D2E/DX2                !
 ! R67   R(51,57)                1.3966         estimate D2E/DX2                !
 ! R68   R(53,54)                1.0887         estimate D2E/DX2                !
 ! R69   R(53,76)                1.3743         estimate D2E/DX2                !
 ! R70   R(55,71)                1.5281         estimate D2E/DX2                !
 ! R71   R(56,60)                1.4172         estimate D2E/DX2                !
 ! R72   R(56,68)                1.4201         estimate D2E/DX2                !
 ! R73   R(57,58)                1.0931         estimate D2E/DX2                !
 ! R74   R(59,70)                1.5281         estimate D2E/DX2                !
 ! R75   R(60,61)                1.092          estimate D2E/DX2                !
 ! R76   R(62,63)                1.0932         estimate D2E/DX2                !
 ! R77   R(62,72)                1.4156         estimate D2E/DX2                !
 ! R78   R(64,65)                1.1039         estimate D2E/DX2                !
 ! R79   R(64,66)                1.1034         estimate D2E/DX2                !
 ! R80   R(64,67)                1.104          estimate D2E/DX2                !
 ! R81   R(64,71)                1.5333         estimate D2E/DX2                !
 ! R82   R(68,69)                1.0934         estimate D2E/DX2                !
 ! R83   R(68,74)                1.3729         estimate D2E/DX2                !
 ! R84   R(70,87)                1.5332         estimate D2E/DX2                !
 ! R85   R(70,90)                1.5401         estimate D2E/DX2                !
 ! R86   R(70,94)                1.5405         estimate D2E/DX2                !
 ! R87   R(71,78)                1.5404         estimate D2E/DX2                !
 ! R88   R(71,82)                1.5403         estimate D2E/DX2                !
 ! R89   R(72,73)                1.0935         estimate D2E/DX2                !
 ! R90   R(74,75)                1.0934         estimate D2E/DX2                !
 ! R91   R(74,76)                1.4157         estimate D2E/DX2                !
 ! R92   R(76,77)                1.0932         estimate D2E/DX2                !
 ! R93   R(78,79)                1.1038         estimate D2E/DX2                !
 ! R94   R(78,80)                1.1042         estimate D2E/DX2                !
 ! R95   R(78,81)                1.1045         estimate D2E/DX2                !
 ! R96   R(82,83)                1.1045         estimate D2E/DX2                !
 ! R97   R(82,84)                1.1042         estimate D2E/DX2                !
 ! R98   R(82,85)                1.1032         estimate D2E/DX2                !
 ! R99   R(86,87)                1.1039         estimate D2E/DX2                !
 ! R100  R(87,88)                1.1038         estimate D2E/DX2                !
 ! R101  R(87,89)                1.1035         estimate D2E/DX2                !
 ! R102  R(90,91)                1.1045         estimate D2E/DX2                !
 ! R103  R(90,92)                1.1042         estimate D2E/DX2                !
 ! R104  R(90,93)                1.1035         estimate D2E/DX2                !
 ! R105  R(94,95)                1.1035         estimate D2E/DX2                !
 ! R106  R(94,96)                1.1042         estimate D2E/DX2                !
 ! R107  R(94,97)                1.1045         estimate D2E/DX2                !
 ! A1    A(2,1,3)               85.6745         estimate D2E/DX2                !
 ! A2    A(2,1,5)               98.4319         estimate D2E/DX2                !
 ! A3    A(2,1,6)               80.0478         estimate D2E/DX2                !
 ! A4    A(2,1,7)               96.2391         estimate D2E/DX2                !
 ! A5    A(3,1,4)               98.5867         estimate D2E/DX2                !
 ! A6    A(3,1,5)               72.9248         estimate D2E/DX2                !
 ! A7    A(3,1,6)               95.3303         estimate D2E/DX2                !
 ! A8    A(4,1,5)               85.9067         estimate D2E/DX2                !
 ! A9    A(4,1,6)               96.3255         estimate D2E/DX2                !
 ! A10   A(4,1,7)               80.1335         estimate D2E/DX2                !
 ! A11   A(5,1,7)               96.7757         estimate D2E/DX2                !
 ! A12   A(6,1,7)               94.9698         estimate D2E/DX2                !
 ! A13   A(1,2,9)              115.9639         estimate D2E/DX2                !
 ! A14   A(1,2,16)             121.8732         estimate D2E/DX2                !
 ! A15   A(9,2,16)             122.115          estimate D2E/DX2                !
 ! A16   A(1,3,8)              117.4073         estimate D2E/DX2                !
 ! A17   A(1,3,45)             123.382          estimate D2E/DX2                !
 ! A18   A(8,3,45)             119.0946         estimate D2E/DX2                !
 ! A19   A(1,4,14)             115.8987         estimate D2E/DX2                !
 ! A20   A(1,4,33)             122.0129         estimate D2E/DX2                !
 ! A21   A(14,4,33)            122.0218         estimate D2E/DX2                !
 ! A22   A(1,5,13)             117.6514         estimate D2E/DX2                !
 ! A23   A(1,5,31)             123.0911         estimate D2E/DX2                !
 ! A24   A(13,5,31)            119.2231         estimate D2E/DX2                !
 ! A25   A(1,6,15)             114.8394         estimate D2E/DX2                !
 ! A26   A(1,6,22)             124.9874         estimate D2E/DX2                !
 ! A27   A(15,6,22)            119.5501         estimate D2E/DX2                !
 ! A28   A(1,7,10)             125.0244         estimate D2E/DX2                !
 ! A29   A(1,7,18)             114.8973         estimate D2E/DX2                !
 ! A30   A(10,7,18)            119.5243         estimate D2E/DX2                !
 ! A31   A(3,8,13)             115.966          estimate D2E/DX2                !
 ! A32   A(3,8,35)             121.2197         estimate D2E/DX2                !
 ! A33   A(13,8,35)            122.8143         estimate D2E/DX2                !
 ! A34   A(2,9,12)             119.5756         estimate D2E/DX2                !
 ! A35   A(2,9,15)             112.8128         estimate D2E/DX2                !
 ! A36   A(12,9,15)            127.6111         estimate D2E/DX2                !
 ! A37   A(7,10,11)            120.2414         estimate D2E/DX2                !
 ! A38   A(7,10,37)            120.4068         estimate D2E/DX2                !
 ! A39   A(11,10,37)           119.3303         estimate D2E/DX2                !
 ! A40   A(9,12,19)            117.7905         estimate D2E/DX2                !
 ! A41   A(9,12,41)            124.1912         estimate D2E/DX2                !
 ! A42   A(19,12,41)           117.9442         estimate D2E/DX2                !
 ! A43   A(5,13,8)             115.8998         estimate D2E/DX2                !
 ! A44   A(5,13,20)            121.138          estimate D2E/DX2                !
 ! A45   A(8,13,20)            122.9621         estimate D2E/DX2                !
 ! A46   A(4,14,18)            112.7649         estimate D2E/DX2                !
 ! A47   A(4,14,30)            119.6992         estimate D2E/DX2                !
 ! A48   A(18,14,30)           127.5359         estimate D2E/DX2                !
 ! A49   A(6,15,9)             115.0135         estimate D2E/DX2                !
 ! A50   A(6,15,24)            118.9812         estimate D2E/DX2                !
 ! A51   A(9,15,24)            125.7629         estimate D2E/DX2                !
 ! A52   A(2,16,17)            116.3806         estimate D2E/DX2                !
 ! A53   A(2,16,47)            121.5255         estimate D2E/DX2                !
 ! A54   A(17,16,47)           122.092          estimate D2E/DX2                !
 ! A55   A(7,18,14)            114.9585         estimate D2E/DX2                !
 ! A56   A(7,18,51)            119.0448         estimate D2E/DX2                !
 ! A57   A(14,18,51)           125.767          estimate D2E/DX2                !
 ! A58   A(12,19,39)           119.9238         estimate D2E/DX2                !
 ! A59   A(12,19,47)           118.8846         estimate D2E/DX2                !
 ! A60   A(39,19,47)           121.1516         estimate D2E/DX2                !
 ! A61   A(13,20,21)           119.0498         estimate D2E/DX2                !
 ! A62   A(13,20,55)           120.7279         estimate D2E/DX2                !
 ! A63   A(21,20,55)           120.2215         estimate D2E/DX2                !
 ! A64   A(6,22,23)            120.2938         estimate D2E/DX2                !
 ! A65   A(6,22,26)            120.4435         estimate D2E/DX2                !
 ! A66   A(23,22,26)           119.238          estimate D2E/DX2                !
 ! A67   A(15,24,25)           121.5035         estimate D2E/DX2                !
 ! A68   A(15,24,49)           120.2961         estimate D2E/DX2                !
 ! A69   A(25,24,49)           118.1552         estimate D2E/DX2                !
 ! A70   A(22,26,27)           120.0446         estimate D2E/DX2                !
 ! A71   A(22,26,49)           119.745          estimate D2E/DX2                !
 ! A72   A(27,26,49)           120.1799         estimate D2E/DX2                !
 ! A73   A(29,28,31)           118.2694         estimate D2E/DX2                !
 ! A74   A(29,28,55)           121.7428         estimate D2E/DX2                !
 ! A75   A(31,28,55)           119.9877         estimate D2E/DX2                !
 ! A76   A(14,30,53)           124.1635         estimate D2E/DX2                !
 ! A77   A(14,30,56)           117.7416         estimate D2E/DX2                !
 ! A78   A(53,30,56)           118.0182         estimate D2E/DX2                !
 ! A79   A(5,31,28)            122.4001         estimate D2E/DX2                !
 ! A80   A(5,31,32)            116.8305         estimate D2E/DX2                !
 ! A81   A(28,31,32)           120.7686         estimate D2E/DX2                !
 ! A82   A(4,33,34)            116.4152         estimate D2E/DX2                !
 ! A83   A(4,33,60)            121.5031         estimate D2E/DX2                !
 ! A84   A(34,33,60)           122.0814         estimate D2E/DX2                !
 ! A85   A(8,35,36)            119.0856         estimate D2E/DX2                !
 ! A86   A(8,35,59)            120.7168         estimate D2E/DX2                !
 ! A87   A(36,35,59)           120.1969         estimate D2E/DX2                !
 ! A88   A(10,37,38)           120.0517         estimate D2E/DX2                !
 ! A89   A(10,37,57)           119.7527         estimate D2E/DX2                !
 ! A90   A(38,37,57)           120.1717         estimate D2E/DX2                !
 ! A91   A(19,39,40)           118.6558         estimate D2E/DX2                !
 ! A92   A(19,39,72)           120.3413         estimate D2E/DX2                !
 ! A93   A(40,39,72)           120.9895         estimate D2E/DX2                !
 ! A94   A(12,41,42)           120.5983         estimate D2E/DX2                !
 ! A95   A(12,41,62)           120.7192         estimate D2E/DX2                !
 ! A96   A(42,41,62)           118.601          estimate D2E/DX2                !
 ! A97   A(44,43,45)           118.3292         estimate D2E/DX2                !
 ! A98   A(44,43,59)           121.668          estimate D2E/DX2                !
 ! A99   A(45,43,59)           120.0027         estimate D2E/DX2                !
 ! A100  A(3,45,43)            122.4616         estimate D2E/DX2                !
 ! A101  A(3,45,46)            116.8403         estimate D2E/DX2                !
 ! A102  A(43,45,46)           120.6974         estimate D2E/DX2                !
 ! A103  A(16,47,19)           119.2846         estimate D2E/DX2                !
 ! A104  A(16,47,48)           120.1833         estimate D2E/DX2                !
 ! A105  A(19,47,48)           120.4718         estimate D2E/DX2                !
 ! A106  A(24,49,26)           120.7447         estimate D2E/DX2                !
 ! A107  A(24,49,50)           119.1786         estimate D2E/DX2                !
 ! A108  A(26,49,50)           120.0741         estimate D2E/DX2                !
 ! A109  A(18,51,52)           121.4439         estimate D2E/DX2                !
 ! A110  A(18,51,57)           120.233          estimate D2E/DX2                !
 ! A111  A(52,51,57)           118.2796         estimate D2E/DX2                !
 ! A112  A(30,53,54)           120.6122         estimate D2E/DX2                !
 ! A113  A(30,53,76)           120.6764         estimate D2E/DX2                !
 ! A114  A(54,53,76)           118.6326         estimate D2E/DX2                !
 ! A115  A(20,55,28)           116.5222         estimate D2E/DX2                !
 ! A116  A(20,55,71)           122.8828         estimate D2E/DX2                !
 ! A117  A(28,55,71)           120.5947         estimate D2E/DX2                !
 ! A118  A(30,56,60)           118.884          estimate D2E/DX2                !
 ! A119  A(30,56,68)           119.8919         estimate D2E/DX2                !
 ! A120  A(60,56,68)           121.1802         estimate D2E/DX2                !
 ! A121  A(37,57,51)           120.7844         estimate D2E/DX2                !
 ! A122  A(37,57,58)           120.0517         estimate D2E/DX2                !
 ! A123  A(51,57,58)           119.1622         estimate D2E/DX2                !
 ! A124  A(35,59,43)           116.5022         estimate D2E/DX2                !
 ! A125  A(35,59,70)           122.8718         estimate D2E/DX2                !
 ! A126  A(43,59,70)           120.6259         estimate D2E/DX2                !
 ! A127  A(33,60,56)           119.327          estimate D2E/DX2                !
 ! A128  A(33,60,61)           120.1502         estimate D2E/DX2                !
 ! A129  A(56,60,61)           120.4566         estimate D2E/DX2                !
 ! A130  A(41,62,63)           119.5201         estimate D2E/DX2                !
 ! A131  A(41,62,72)           120.8246         estimate D2E/DX2                !
 ! A132  A(63,62,72)           119.6481         estimate D2E/DX2                !
 ! A133  A(65,64,66)           107.569          estimate D2E/DX2                !
 ! A134  A(65,64,67)           108.4216         estimate D2E/DX2                !
 ! A135  A(65,64,71)           111.9155         estimate D2E/DX2                !
 ! A136  A(66,64,67)           107.6099         estimate D2E/DX2                !
 ! A137  A(66,64,71)           109.3213         estimate D2E/DX2                !
 ! A138  A(67,64,71)           111.8231         estimate D2E/DX2                !
 ! A139  A(56,68,69)           118.6512         estimate D2E/DX2                !
 ! A140  A(56,68,74)           120.3438         estimate D2E/DX2                !
 ! A141  A(69,68,74)           120.9887         estimate D2E/DX2                !
 ! A142  A(59,70,87)           112.0513         estimate D2E/DX2                !
 ! A143  A(59,70,90)           108.7508         estimate D2E/DX2                !
 ! A144  A(59,70,94)           108.636          estimate D2E/DX2                !
 ! A145  A(87,70,90)           108.7886         estimate D2E/DX2                !
 ! A146  A(87,70,94)           108.8331         estimate D2E/DX2                !
 ! A147  A(90,70,94)           109.7624         estimate D2E/DX2                !
 ! A148  A(55,71,64)           112.0219         estimate D2E/DX2                !
 ! A149  A(55,71,78)           108.5481         estimate D2E/DX2                !
 ! A150  A(55,71,82)           108.8434         estimate D2E/DX2                !
 ! A151  A(64,71,78)           108.8815         estimate D2E/DX2                !
 ! A152  A(64,71,82)           108.7789         estimate D2E/DX2                !
 ! A153  A(78,71,82)           109.7483         estimate D2E/DX2                !
 ! A154  A(39,72,62)           120.0045         estimate D2E/DX2                !
 ! A155  A(39,72,73)           120.2402         estimate D2E/DX2                !
 ! A156  A(62,72,73)           119.7259         estimate D2E/DX2                !
 ! A157  A(68,74,75)           120.224          estimate D2E/DX2                !
 ! A158  A(68,74,76)           120.0175         estimate D2E/DX2                !
 ! A159  A(75,74,76)           119.7314         estimate D2E/DX2                !
 ! A160  A(53,76,74)           120.8275         estimate D2E/DX2                !
 ! A161  A(53,76,77)           119.5175         estimate D2E/DX2                !
 ! A162  A(74,76,77)           119.6481         estimate D2E/DX2                !
 ! A163  A(71,78,79)           111.9105         estimate D2E/DX2                !
 ! A164  A(71,78,80)           109.6929         estimate D2E/DX2                !
 ! A165  A(71,78,81)           111.0068         estimate D2E/DX2                !
 ! A166  A(79,78,80)           107.7234         estimate D2E/DX2                !
 ! A167  A(79,78,81)           108.2639         estimate D2E/DX2                !
 ! A168  A(80,78,81)           108.1109         estimate D2E/DX2                !
 ! A169  A(71,82,83)           111.0032         estimate D2E/DX2                !
 ! A170  A(71,82,84)           109.7022         estimate D2E/DX2                !
 ! A171  A(71,82,85)           111.9659         estimate D2E/DX2                !
 ! A172  A(83,82,84)           108.1048         estimate D2E/DX2                !
 ! A173  A(83,82,85)           108.2434         estimate D2E/DX2                !
 ! A174  A(84,82,85)           107.6855         estimate D2E/DX2                !
 ! A175  A(70,87,86)           111.8439         estimate D2E/DX2                !
 ! A176  A(70,87,88)           111.8697         estimate D2E/DX2                !
 ! A177  A(70,87,89)           109.34           estimate D2E/DX2                !
 ! A178  A(86,87,88)           108.4213         estimate D2E/DX2                !
 ! A179  A(86,87,89)           107.6159         estimate D2E/DX2                !
 ! A180  A(88,87,89)           107.5705         estimate D2E/DX2                !
 ! A181  A(70,90,91)           110.9891         estimate D2E/DX2                !
 ! A182  A(70,90,92)           109.702          estimate D2E/DX2                !
 ! A183  A(70,90,93)           111.9681         estimate D2E/DX2                !
 ! A184  A(91,90,92)           108.0999         estimate D2E/DX2                !
 ! A185  A(91,90,93)           108.2235         estimate D2E/DX2                !
 ! A186  A(92,90,93)           107.7236         estimate D2E/DX2                !
 ! A187  A(70,94,95)           111.8863         estimate D2E/DX2                !
 ! A188  A(70,94,96)           109.6936         estimate D2E/DX2                !
 ! A189  A(70,94,97)           111.0204         estimate D2E/DX2                !
 ! A190  A(95,94,96)           107.7155         estimate D2E/DX2                !
 ! A191  A(95,94,97)           108.2889         estimate D2E/DX2                !
 ! A192  A(96,94,97)           108.1036         estimate D2E/DX2                !
 ! A193  L(2,1,4,3,-1)         184.2612         estimate D2E/DX2                !
 ! A194  L(3,1,7,2,-1)         181.9136         estimate D2E/DX2                !
 ! A195  L(5,1,6,2,-1)         178.4798         estimate D2E/DX2                !
 ! A196  L(2,1,4,3,-2)         176.8028         estimate D2E/DX2                !
 ! A197  L(3,1,7,2,-2)         169.8346         estimate D2E/DX2                !
 ! A198  L(5,1,6,2,-2)         191.8008         estimate D2E/DX2                !
 ! D1    D(3,1,2,9)           -101.3964         estimate D2E/DX2                !
 ! D2    D(3,1,2,16)            81.0703         estimate D2E/DX2                !
 ! D3    D(5,1,2,9)           -173.4037         estimate D2E/DX2                !
 ! D4    D(5,1,2,16)             9.063          estimate D2E/DX2                !
 ! D5    D(6,1,2,9)             -5.2045         estimate D2E/DX2                !
 ! D6    D(6,1,2,16)           177.2622         estimate D2E/DX2                !
 ! D7    D(7,1,2,9)             88.769          estimate D2E/DX2                !
 ! D8    D(7,1,2,16)           -88.7643         estimate D2E/DX2                !
 ! D9    D(2,1,3,8)            -97.6977         estimate D2E/DX2                !
 ! D10   D(2,1,3,45)            78.3412         estimate D2E/DX2                !
 ! D11   D(4,1,3,8)             85.4995         estimate D2E/DX2                !
 ! D12   D(4,1,3,45)           -98.4616         estimate D2E/DX2                !
 ! D13   D(5,1,3,8)              2.5013         estimate D2E/DX2                !
 ! D14   D(5,1,3,45)           178.5402         estimate D2E/DX2                !
 ! D15   D(6,1,3,8)           -177.2621         estimate D2E/DX2                !
 ! D16   D(6,1,3,45)            -1.2232         estimate D2E/DX2                !
 ! D17   D(3,1,4,14)          -175.0558         estimate D2E/DX2                !
 ! D18   D(3,1,4,33)             7.857          estimate D2E/DX2                !
 ! D19   D(5,1,4,14)          -103.0259         estimate D2E/DX2                !
 ! D20   D(5,1,4,33)            79.8868         estimate D2E/DX2                !
 ! D21   D(6,1,4,14)            88.5559         estimate D2E/DX2                !
 ! D22   D(6,1,4,33)           -88.5313         estimate D2E/DX2                !
 ! D23   D(7,1,4,14)            -5.4115         estimate D2E/DX2                !
 ! D24   D(7,1,4,33)           177.5013         estimate D2E/DX2                !
 ! D25   D(2,1,5,13)            82.6573         estimate D2E/DX2                !
 ! D26   D(2,1,5,31)           -99.4955         estimate D2E/DX2                !
 ! D27   D(3,1,5,13)            -0.1449         estimate D2E/DX2                !
 ! D28   D(3,1,5,31)           177.7024         estimate D2E/DX2                !
 ! D29   D(4,1,5,13)          -100.4315         estimate D2E/DX2                !
 ! D30   D(4,1,5,31)            77.4157         estimate D2E/DX2                !
 ! D31   D(7,1,5,13)          -179.9743         estimate D2E/DX2                !
 ! D32   D(7,1,5,31)            -2.127          estimate D2E/DX2                !
 ! D33   D(2,1,6,15)            -2.2844         estimate D2E/DX2                !
 ! D34   D(2,1,6,22)          -173.149          estimate D2E/DX2                !
 ! D35   D(3,1,6,15)            82.3634         estimate D2E/DX2                !
 ! D36   D(3,1,6,22)           -88.5012         estimate D2E/DX2                !
 ! D37   D(4,1,6,15)          -178.3591         estimate D2E/DX2                !
 ! D38   D(4,1,6,22)            10.7763         estimate D2E/DX2                !
 ! D39   D(7,1,6,15)           -97.7642         estimate D2E/DX2                !
 ! D40   D(7,1,6,22)            91.3712         estimate D2E/DX2                !
 ! D41   D(2,1,7,10)            10.4105         estimate D2E/DX2                !
 ! D42   D(2,1,7,18)          -178.2095         estimate D2E/DX2                !
 ! D43   D(4,1,7,10)          -173.5132         estimate D2E/DX2                !
 ! D44   D(4,1,7,18)            -2.1332         estimate D2E/DX2                !
 ! D45   D(5,1,7,10)           -88.8854         estimate D2E/DX2                !
 ! D46   D(5,1,7,18)            82.4945         estimate D2E/DX2                !
 ! D47   D(6,1,7,10)            90.913          estimate D2E/DX2                !
 ! D48   D(6,1,7,18)           -97.707          estimate D2E/DX2                !
 ! D49   D(1,2,9,12)          -169.1682         estimate D2E/DX2                !
 ! D50   D(1,2,9,15)            11.0731         estimate D2E/DX2                !
 ! D51   D(16,2,9,12)            8.3585         estimate D2E/DX2                !
 ! D52   D(16,2,9,15)         -171.4002         estimate D2E/DX2                !
 ! D53   D(1,2,16,17)           -3.6971         estimate D2E/DX2                !
 ! D54   D(1,2,16,47)          176.8041         estimate D2E/DX2                !
 ! D55   D(9,2,16,17)          178.9214         estimate D2E/DX2                !
 ! D56   D(9,2,16,47)           -0.5773         estimate D2E/DX2                !
 ! D57   D(1,3,8,13)            -4.3406         estimate D2E/DX2                !
 ! D58   D(1,3,8,35)           175.7183         estimate D2E/DX2                !
 ! D59   D(45,3,8,13)          179.4444         estimate D2E/DX2                !
 ! D60   D(45,3,8,35)           -0.4968         estimate D2E/DX2                !
 ! D61   D(1,3,45,43)         -175.7862         estimate D2E/DX2                !
 ! D62   D(1,3,45,46)            4.5166         estimate D2E/DX2                !
 ! D63   D(8,3,45,43)            0.1894         estimate D2E/DX2                !
 ! D64   D(8,3,45,46)         -179.5078         estimate D2E/DX2                !
 ! D65   D(1,4,14,18)           11.283          estimate D2E/DX2                !
 ! D66   D(1,4,14,30)         -168.6139         estimate D2E/DX2                !
 ! D67   D(33,4,14,18)        -171.63           estimate D2E/DX2                !
 ! D68   D(33,4,14,30)           8.473          estimate D2E/DX2                !
 ! D69   D(1,4,33,34)           -4.0336         estimate D2E/DX2                !
 ! D70   D(1,4,33,60)          176.1753         estimate D2E/DX2                !
 ! D71   D(14,4,33,34)         179.057          estimate D2E/DX2                !
 ! D72   D(14,4,33,60)          -0.7341         estimate D2E/DX2                !
 ! D73   D(1,5,13,8)            -1.9732         estimate D2E/DX2                !
 ! D74   D(1,5,13,20)          177.9459         estimate D2E/DX2                !
 ! D75   D(31,5,13,8)         -179.9066         estimate D2E/DX2                !
 ! D76   D(31,5,13,20)           0.0124         estimate D2E/DX2                !
 ! D77   D(1,5,31,28)         -178.0776         estimate D2E/DX2                !
 ! D78   D(1,5,31,32)            2.2449         estimate D2E/DX2                !
 ! D79   D(13,5,31,28)          -0.2626         estimate D2E/DX2                !
 ! D80   D(13,5,31,32)        -179.9401         estimate D2E/DX2                !
 ! D81   D(1,6,15,9)             8.8334         estimate D2E/DX2                !
 ! D82   D(1,6,15,24)         -165.8368         estimate D2E/DX2                !
 ! D83   D(22,6,15,9)         -179.766          estimate D2E/DX2                !
 ! D84   D(22,6,15,24)           5.5638         estimate D2E/DX2                !
 ! D85   D(1,6,22,23)          -10.3163         estimate D2E/DX2                !
 ! D86   D(1,6,22,26)          167.8614         estimate D2E/DX2                !
 ! D87   D(15,6,22,23)         179.2171         estimate D2E/DX2                !
 ! D88   D(15,6,22,26)          -2.6051         estimate D2E/DX2                !
 ! D89   D(1,7,10,11)          -10.252          estimate D2E/DX2                !
 ! D90   D(1,7,10,37)          168.0511         estimate D2E/DX2                !
 ! D91   D(18,7,10,11)         178.7367         estimate D2E/DX2                !
 ! D92   D(18,7,10,37)          -2.9602         estimate D2E/DX2                !
 ! D93   D(1,7,18,14)            8.7501         estimate D2E/DX2                !
 ! D94   D(1,7,18,51)         -166.061          estimate D2E/DX2                !
 ! D95   D(10,7,18,14)        -179.3589         estimate D2E/DX2                !
 ! D96   D(10,7,18,51)           5.83           estimate D2E/DX2                !
 ! D97   D(3,8,13,5)             4.17           estimate D2E/DX2                !
 ! D98   D(3,8,13,20)         -175.7475         estimate D2E/DX2                !
 ! D99   D(35,8,13,5)         -175.8899         estimate D2E/DX2                !
 ! D100  D(35,8,13,20)           4.1927         estimate D2E/DX2                !
 ! D101  D(3,8,35,36)         -179.3523         estimate D2E/DX2                !
 ! D102  D(3,8,35,59)            0.3513         estimate D2E/DX2                !
 ! D103  D(13,8,35,36)           0.7107         estimate D2E/DX2                !
 ! D104  D(13,8,35,59)        -179.5857         estimate D2E/DX2                !
 ! D105  D(2,9,12,19)          -10.2697         estimate D2E/DX2                !
 ! D106  D(2,9,12,41)          166.5286         estimate D2E/DX2                !
 ! D107  D(15,9,12,19)         169.4495         estimate D2E/DX2                !
 ! D108  D(15,9,12,41)         -13.7521         estimate D2E/DX2                !
 ! D109  D(2,9,15,6)           -12.9929         estimate D2E/DX2                !
 ! D110  D(2,9,15,24)          161.26           estimate D2E/DX2                !
 ! D111  D(12,9,15,6)          167.272          estimate D2E/DX2                !
 ! D112  D(12,9,15,24)         -18.4751         estimate D2E/DX2                !
 ! D113  D(7,10,37,38)        -179.4766         estimate D2E/DX2                !
 ! D114  D(7,10,37,57)          -1.2537         estimate D2E/DX2                !
 ! D115  D(11,10,37,38)         -1.1581         estimate D2E/DX2                !
 ! D116  D(11,10,37,57)        177.0647         estimate D2E/DX2                !
 ! D117  D(9,12,19,39)        -177.45           estimate D2E/DX2                !
 ! D118  D(9,12,19,47)           4.8226         estimate D2E/DX2                !
 ! D119  D(41,12,19,39)          5.5476         estimate D2E/DX2                !
 ! D120  D(41,12,19,47)       -172.1798         estimate D2E/DX2                !
 ! D121  D(9,12,41,42)          -4.3124         estimate D2E/DX2                !
 ! D122  D(9,12,41,62)         179.017          estimate D2E/DX2                !
 ! D123  D(19,12,41,42)        172.4814         estimate D2E/DX2                !
 ! D124  D(19,12,41,62)         -4.1892         estimate D2E/DX2                !
 ! D125  D(5,13,20,21)        -179.4322         estimate D2E/DX2                !
 ! D126  D(5,13,20,55)           0.2521         estimate D2E/DX2                !
 ! D127  D(8,13,20,21)           0.4811         estimate D2E/DX2                !
 ! D128  D(8,13,20,55)        -179.8347         estimate D2E/DX2                !
 ! D129  D(4,14,18,7)          -13.0706         estimate D2E/DX2                !
 ! D130  D(4,14,18,51)         161.3374         estimate D2E/DX2                !
 ! D131  D(30,14,18,7)         166.8165         estimate D2E/DX2                !
 ! D132  D(30,14,18,51)        -18.7755         estimate D2E/DX2                !
 ! D133  D(4,14,30,53)         166.4953         estimate D2E/DX2                !
 ! D134  D(4,14,30,56)         -10.2487         estimate D2E/DX2                !
 ! D135  D(18,14,30,53)        -13.3849         estimate D2E/DX2                !
 ! D136  D(18,14,30,56)        169.8711         estimate D2E/DX2                !
 ! D137  D(6,15,24,25)         173.0211         estimate D2E/DX2                !
 ! D138  D(6,15,24,49)          -4.4874         estimate D2E/DX2                !
 ! D139  D(9,15,24,25)          -1.0246         estimate D2E/DX2                !
 ! D140  D(9,15,24,49)        -178.5331         estimate D2E/DX2                !
 ! D141  D(2,16,47,19)          -4.997          estimate D2E/DX2                !
 ! D142  D(2,16,47,48)         177.8143         estimate D2E/DX2                !
 ! D143  D(17,16,47,19)        175.5331         estimate D2E/DX2                !
 ! D144  D(17,16,47,48)         -1.6556         estimate D2E/DX2                !
 ! D145  D(7,18,51,52)         173.0268         estimate D2E/DX2                !
 ! D146  D(7,18,51,57)          -4.5303         estimate D2E/DX2                !
 ! D147  D(14,18,51,52)         -1.1734         estimate D2E/DX2                !
 ! D148  D(14,18,51,57)       -178.7305         estimate D2E/DX2                !
 ! D149  D(12,19,39,40)        178.5322         estimate D2E/DX2                !
 ! D150  D(12,19,39,72)         -2.7839         estimate D2E/DX2                !
 ! D151  D(47,19,39,40)         -3.793          estimate D2E/DX2                !
 ! D152  D(47,19,39,72)        174.8909         estimate D2E/DX2                !
 ! D153  D(12,19,47,16)          2.5806         estimate D2E/DX2                !
 ! D154  D(12,19,47,48)        179.7611         estimate D2E/DX2                !
 ! D155  D(39,19,47,16)       -175.1178         estimate D2E/DX2                !
 ! D156  D(39,19,47,48)          2.0626         estimate D2E/DX2                !
 ! D157  D(13,20,55,28)         -0.2574         estimate D2E/DX2                !
 ! D158  D(13,20,55,71)        179.5461         estimate D2E/DX2                !
 ! D159  D(21,20,55,28)        179.4231         estimate D2E/DX2                !
 ! D160  D(21,20,55,71)         -0.7733         estimate D2E/DX2                !
 ! D161  D(6,22,26,27)        -179.4777         estimate D2E/DX2                !
 ! D162  D(6,22,26,49)          -1.4807         estimate D2E/DX2                !
 ! D163  D(23,22,26,27)         -1.2808         estimate D2E/DX2                !
 ! D164  D(23,22,26,49)        176.7162         estimate D2E/DX2                !
 ! D165  D(15,24,49,26)          0.427          estimate D2E/DX2                !
 ! D166  D(15,24,49,50)        179.8522         estimate D2E/DX2                !
 ! D167  D(25,24,49,26)       -177.1637         estimate D2E/DX2                !
 ! D168  D(25,24,49,50)          2.2615         estimate D2E/DX2                !
 ! D169  D(22,26,49,24)          2.6188         estimate D2E/DX2                !
 ! D170  D(22,26,49,50)       -176.8012         estimate D2E/DX2                !
 ! D171  D(27,26,49,24)       -179.3869         estimate D2E/DX2                !
 ! D172  D(27,26,49,50)          1.193          estimate D2E/DX2                !
 ! D173  D(29,28,31,5)        -179.6525         estimate D2E/DX2                !
 ! D174  D(29,28,31,32)          0.0126         estimate D2E/DX2                !
 ! D175  D(55,28,31,5)           0.2471         estimate D2E/DX2                !
 ! D176  D(55,28,31,32)        179.9122         estimate D2E/DX2                !
 ! D177  D(29,28,55,20)        179.9145         estimate D2E/DX2                !
 ! D178  D(29,28,55,71)          0.1062         estimate D2E/DX2                !
 ! D179  D(31,28,55,20)          0.0186         estimate D2E/DX2                !
 ! D180  D(31,28,55,71)       -179.7898         estimate D2E/DX2                !
 ! D181  D(14,30,53,54)         -3.963          estimate D2E/DX2                !
 ! D182  D(14,30,53,76)        179.3082         estimate D2E/DX2                !
 ! D183  D(56,30,53,54)        172.7726         estimate D2E/DX2                !
 ! D184  D(56,30,53,76)         -3.9562         estimate D2E/DX2                !
 ! D185  D(14,30,56,60)          4.7041         estimate D2E/DX2                !
 ! D186  D(14,30,56,68)       -177.6782         estimate D2E/DX2                !
 ! D187  D(53,30,56,60)       -172.2443         estimate D2E/DX2                !
 ! D188  D(53,30,56,68)          5.3735         estimate D2E/DX2                !
 ! D189  D(4,33,60,56)          -4.9295         estimate D2E/DX2                !
 ! D190  D(4,33,60,61)         178.0138         estimate D2E/DX2                !
 ! D191  D(34,33,60,56)        175.2913         estimate D2E/DX2                !
 ! D192  D(34,33,60,61)         -1.7653         estimate D2E/DX2                !
 ! D193  D(8,35,59,43)           0.1025         estimate D2E/DX2                !
 ! D194  D(8,35,59,70)         179.9724         estimate D2E/DX2                !
 ! D195  D(36,35,59,43)        179.8028         estimate D2E/DX2                !
 ! D196  D(36,35,59,70)         -0.3273         estimate D2E/DX2                !
 ! D197  D(10,37,57,51)          2.6198         estimate D2E/DX2                !
 ! D198  D(10,37,57,58)       -176.8941         estimate D2E/DX2                !
 ! D199  D(38,37,57,51)       -179.1596         estimate D2E/DX2                !
 ! D200  D(38,37,57,58)          1.3266         estimate D2E/DX2                !
 ! D201  D(19,39,72,62)         -1.4879         estimate D2E/DX2                !
 ! D202  D(19,39,72,73)       -179.5134         estimate D2E/DX2                !
 ! D203  D(40,39,72,62)        177.1648         estimate D2E/DX2                !
 ! D204  D(40,39,72,73)         -0.8606         estimate D2E/DX2                !
 ! D205  D(12,41,62,63)        179.035          estimate D2E/DX2                !
 ! D206  D(12,41,62,72)          0.0155         estimate D2E/DX2                !
 ! D207  D(42,41,62,63)          2.2991         estimate D2E/DX2                !
 ! D208  D(42,41,62,72)       -176.7204         estimate D2E/DX2                !
 ! D209  D(44,43,45,3)        -179.6587         estimate D2E/DX2                !
 ! D210  D(44,43,45,46)          0.027          estimate D2E/DX2                !
 ! D211  D(59,43,45,3)           0.2687         estimate D2E/DX2                !
 ! D212  D(59,43,45,46)        179.9544         estimate D2E/DX2                !
 ! D213  D(44,43,59,35)        179.526          estimate D2E/DX2                !
 ! D214  D(44,43,59,70)         -0.3471         estimate D2E/DX2                !
 ! D215  D(45,43,59,35)         -0.3989         estimate D2E/DX2                !
 ! D216  D(45,43,59,70)        179.728          estimate D2E/DX2                !
 ! D217  D(18,51,57,37)          0.3349         estimate D2E/DX2                !
 ! D218  D(18,51,57,58)        179.8531         estimate D2E/DX2                !
 ! D219  D(52,51,57,37)       -177.2984         estimate D2E/DX2                !
 ! D220  D(52,51,57,58)          2.2197         estimate D2E/DX2                !
 ! D221  D(30,53,76,74)         -0.0848         estimate D2E/DX2                !
 ! D222  D(30,53,76,77)        178.9515         estimate D2E/DX2                !
 ! D223  D(54,53,76,74)       -176.8773         estimate D2E/DX2                !
 ! D224  D(54,53,76,77)          2.1589         estimate D2E/DX2                !
 ! D225  D(20,55,71,64)          1.2127         estimate D2E/DX2                !
 ! D226  D(20,55,71,78)       -119.0468         estimate D2E/DX2                !
 ! D227  D(20,55,71,82)        121.5408         estimate D2E/DX2                !
 ! D228  D(28,55,71,64)       -178.9915         estimate D2E/DX2                !
 ! D229  D(28,55,71,78)         60.749          estimate D2E/DX2                !
 ! D230  D(28,55,71,82)        -58.6633         estimate D2E/DX2                !
 ! D231  D(30,56,60,33)          2.6509         estimate D2E/DX2                !
 ! D232  D(30,56,60,61)        179.6983         estimate D2E/DX2                !
 ! D233  D(68,56,60,33)       -174.9351         estimate D2E/DX2                !
 ! D234  D(68,56,60,61)          2.1124         estimate D2E/DX2                !
 ! D235  D(30,56,68,69)        178.6484         estimate D2E/DX2                !
 ! D236  D(30,56,68,74)         -2.8014         estimate D2E/DX2                !
 ! D237  D(60,56,68,69)         -3.7897         estimate D2E/DX2                !
 ! D238  D(60,56,68,74)        174.7605         estimate D2E/DX2                !
 ! D239  D(35,59,70,87)         -0.1329         estimate D2E/DX2                !
 ! D240  D(35,59,70,90)        120.1641         estimate D2E/DX2                !
 ! D241  D(35,59,70,94)       -120.409          estimate D2E/DX2                !
 ! D242  D(43,59,70,87)        179.7318         estimate D2E/DX2                !
 ! D243  D(43,59,70,90)        -59.9711         estimate D2E/DX2                !
 ! D244  D(43,59,70,94)         59.4557         estimate D2E/DX2                !
 ! D245  D(41,62,72,39)          2.9169         estimate D2E/DX2                !
 ! D246  D(41,62,72,73)       -179.0474         estimate D2E/DX2                !
 ! D247  D(63,62,72,39)       -176.1013         estimate D2E/DX2                !
 ! D248  D(63,62,72,73)          1.9343         estimate D2E/DX2                !
 ! D249  D(65,64,71,55)        -61.0838         estimate D2E/DX2                !
 ! D250  D(65,64,71,78)         58.9813         estimate D2E/DX2                !
 ! D251  D(65,64,71,82)        178.5505         estimate D2E/DX2                !
 ! D252  D(66,64,71,55)        179.8486         estimate D2E/DX2                !
 ! D253  D(66,64,71,78)        -60.0863         estimate D2E/DX2                !
 ! D254  D(66,64,71,82)         59.4828         estimate D2E/DX2                !
 ! D255  D(67,64,71,55)         60.7877         estimate D2E/DX2                !
 ! D256  D(67,64,71,78)       -179.1471         estimate D2E/DX2                !
 ! D257  D(67,64,71,82)        -59.578          estimate D2E/DX2                !
 ! D258  D(56,68,74,75)       -179.4257         estimate D2E/DX2                !
 ! D259  D(56,68,74,76)         -1.3274         estimate D2E/DX2                !
 ! D260  D(69,68,74,75)         -0.9098         estimate D2E/DX2                !
 ! D261  D(69,68,74,76)        177.1885         estimate D2E/DX2                !
 ! D262  D(59,70,87,86)         61.0443         estimate D2E/DX2                !
 ! D263  D(59,70,87,88)        -60.8089         estimate D2E/DX2                !
 ! D264  D(59,70,87,89)       -179.8621         estimate D2E/DX2                !
 ! D265  D(90,70,87,86)        -59.2307         estimate D2E/DX2                !
 ! D266  D(90,70,87,88)        178.916          estimate D2E/DX2                !
 ! D267  D(90,70,87,89)         59.8628         estimate D2E/DX2                !
 ! D268  D(94,70,87,86)       -178.7943         estimate D2E/DX2                !
 ! D269  D(94,70,87,88)         59.3524         estimate D2E/DX2                !
 ! D270  D(94,70,87,89)        -59.7008         estimate D2E/DX2                !
 ! D271  D(59,70,90,91)        -60.5039         estimate D2E/DX2                !
 ! D272  D(59,70,90,92)       -179.8987         estimate D2E/DX2                !
 ! D273  D(59,70,90,93)         60.5556         estimate D2E/DX2                !
 ! D274  D(87,70,90,91)         61.7915         estimate D2E/DX2                !
 ! D275  D(87,70,90,92)        -57.6033         estimate D2E/DX2                !
 ! D276  D(87,70,90,93)       -177.149          estimate D2E/DX2                !
 ! D277  D(94,70,90,91)       -179.2253         estimate D2E/DX2                !
 ! D278  D(94,70,90,92)         61.3798         estimate D2E/DX2                !
 ! D279  D(94,70,90,93)        -58.1658         estimate D2E/DX2                !
 ! D280  D(59,70,94,95)        -61.745          estimate D2E/DX2                !
 ! D281  D(59,70,94,96)        178.7773         estimate D2E/DX2                !
 ! D282  D(59,70,94,97)         59.3637         estimate D2E/DX2                !
 ! D283  D(87,70,94,95)        176.003          estimate D2E/DX2                !
 ! D284  D(87,70,94,96)         56.5253         estimate D2E/DX2                !
 ! D285  D(87,70,94,97)        -62.8883         estimate D2E/DX2                !
 ! D286  D(90,70,94,95)         57.0472         estimate D2E/DX2                !
 ! D287  D(90,70,94,96)        -62.4305         estimate D2E/DX2                !
 ! D288  D(90,70,94,97)        178.1559         estimate D2E/DX2                !
 ! D289  D(55,71,78,79)        -61.4107         estimate D2E/DX2                !
 ! D290  D(55,71,78,80)        179.0867         estimate D2E/DX2                !
 ! D291  D(55,71,78,81)         59.6731         estimate D2E/DX2                !
 ! D292  D(64,71,78,79)        176.3977         estimate D2E/DX2                !
 ! D293  D(64,71,78,80)         56.8951         estimate D2E/DX2                !
 ! D294  D(64,71,78,81)        -62.5185         estimate D2E/DX2                !
 ! D295  D(82,71,78,79)         57.4331         estimate D2E/DX2                !
 ! D296  D(82,71,78,80)        -62.0694         estimate D2E/DX2                !
 ! D297  D(82,71,78,81)        178.5169         estimate D2E/DX2                !
 ! D298  D(55,71,82,83)        -59.9712         estimate D2E/DX2                !
 ! D299  D(55,71,82,84)       -179.3811         estimate D2E/DX2                !
 ! D300  D(55,71,82,85)         61.1223         estimate D2E/DX2                !
 ! D301  D(64,71,82,83)         62.3395         estimate D2E/DX2                !
 ! D302  D(64,71,82,84)        -57.0705         estimate D2E/DX2                !
 ! D303  D(64,71,82,85)       -176.5671         estimate D2E/DX2                !
 ! D304  D(78,71,82,83)       -178.6328         estimate D2E/DX2                !
 ! D305  D(78,71,82,84)         61.9572         estimate D2E/DX2                !
 ! D306  D(78,71,82,85)        -57.5394         estimate D2E/DX2                !
 ! D307  D(68,74,76,53)          2.814          estimate D2E/DX2                !
 ! D308  D(68,74,76,77)       -176.221          estimate D2E/DX2                !
 ! D309  D(75,74,76,53)       -179.0783         estimate D2E/DX2                !
 ! D310  D(75,74,76,77)          1.8867         estimate D2E/DX2                !
 --------------------------------------------------------------------------------
 Trust Radius=3.00D-01 FncErr=5.00D-06 GrdErr=5.00D-06 EigMax=2.50D+02 EigMin=1.00D-04
 Number of steps in this run=    500 maximum allowed number of steps=    582.
 GradGradGradGradGradGradGradGradGradGradGradGradGradGradGradGradGradGrad

 Stoichiometry    C48H44IrN4(2+,2)
 Framework group  C1[X(C48H44IrN4)]
 Deg. of freedom   285
 Full point group                 C1      NOp   1
 Largest Abelian subgroup         C1      NOp   1
 Largest concise Abelian subgroup C1      NOp   1
                         Standard orientation:                         
 ---------------------------------------------------------------------
 Center     Atomic      Atomic             Coordinates (Angstroms)
 Number     Number       Type             X           Y           Z
 ---------------------------------------------------------------------
      1         77           0        0.194801   -0.702495   -0.011687
      2          7           0       -1.627129   -1.228967   -0.883077
      3          7           0       -0.981902    0.842489    1.110024
      4          7           0        2.059410   -0.364657    0.856753
      5          7           0        0.507646    1.250952   -1.059735
      6          6           0       -0.321441   -2.214134    1.160775
      7          6           0        1.327802   -1.792736   -1.207683
      8          6           0       -0.981479    2.095050    0.622338
      9          6           0       -2.220284   -2.321309   -0.386492
     10          6           0        0.883131   -2.433422   -2.378624
     11          1           0       -0.185469   -2.491725   -2.602539
     12          6           0       -3.345685   -2.888444   -1.070582
     13          6           0       -0.111845    2.333035   -0.559609
     14          6           0        3.078723   -1.065278    0.344360
     15          6           0       -1.590687   -2.797263    0.863880
     16          6           0       -2.151144   -0.533480   -1.925570
     17          1           0       -1.599636    0.352894   -2.243205
     18          6           0        2.725627   -1.749125   -0.916592
     19          6           0       -3.927471   -2.134053   -2.134794
     20          6           0        0.065797    3.592685   -1.129029
     21          1           0       -0.445137    4.447362   -0.690758
     22          6           0        0.364582   -2.602111    2.325049
     23          1           0        1.342574   -2.173073    2.557534
     24          6           0       -2.177259   -3.655239    1.798806
     25          1           0       -3.190036   -4.033542    1.667193
     26          6           0       -0.208705   -3.506277    3.212336
     27          1           0        0.326988   -3.796973    4.120166
     28          6           0        1.521976    2.611700   -2.736600
     29          1           0        2.184460    2.646499   -3.603569
     30          6           0        4.339168   -1.087082    1.026238
     31          6           0        1.308720    1.389708   -2.123380
     32          1           0        1.791745    0.484412   -2.498318
     33          6           0        2.219462    0.469031    1.917578
     34          1           0        1.330788    1.007002    2.250413
     35          6           0       -1.755633    3.097119    1.204405
     36          1           0       -1.737153    4.096767    0.774662
     37          6           0        1.797676   -2.967242   -3.279195
     38          1           0        1.445925   -3.456425   -4.191673
     39          6           0       -5.076829   -2.627738   -2.807293
     40          1           0       -5.519569   -2.021988   -3.602543
     41          6           0       -3.878218   -4.181659   -0.800277
     42          1           0       -3.392990   -4.841942   -0.084072
     43          6           0       -2.519808    1.512779    2.807668
     44          1           0       -3.102808    1.210614    3.679990
     45          6           0       -1.734453    0.561112    2.180889
     46          1           0       -1.700761   -0.466044    2.551296
     47          6           0       -3.310384   -0.921679   -2.531411
     48          1           0       -3.730932   -0.326419   -3.344479
     49          6           0       -1.487772   -4.008538    2.960334
     50          1           0       -1.964761   -4.678785    3.680240
     51          6           0        3.631051   -2.236425   -1.862615
     52          1           0        4.706282   -2.121192   -1.732102
     53          6           0        5.391480   -2.001126    0.733035
     54          1           0        5.252123   -2.788442   -0.005808
     55          6           0        0.892368    3.762640   -2.242936
     56          6           0        4.523466   -0.177788    2.111836
     57          6           0        3.167759   -2.843267   -3.032005
     58          1           0        3.891561   -3.216153   -3.761402
     59          6           0       -2.551387    2.826599    2.320694
     60          6           0        3.430747    0.623688    2.526505
     61          1           0        3.541708    1.324026    3.356943
     62          6           0       -4.973956   -4.647243   -1.486841
     63          1           0       -5.356793   -5.649046   -1.274759
     64          6           0        0.353634    6.242741   -2.199468
     65          1           0       -0.737107    6.073052   -2.209389
     66          1           0        0.546730    7.198541   -2.715907
     67          1           0        0.679243    6.357936   -1.150933
     68          6           0        5.771390   -0.126045    2.787613
     69          1           0        5.897505    0.593292    3.601293
     70          6           0       -3.418244    3.887213    2.997963
     71          6           0        1.114251    5.118271   -2.912251
     72          6           0       -5.599358   -3.854042   -2.478627
     73          1           0       -6.479610   -4.236019   -3.002937
     74          6           0        6.784138   -0.985676    2.440759
     75          1           0        7.741025   -0.950436    2.968692
     76          6           0        6.578382   -1.948882    1.423844
     77          1           0        7.366921   -2.670650    1.195107
     78          6           0        0.624164    5.031076   -4.369998
     79          1           0        1.185555    4.277391   -4.948887
     80          1           0        0.760850    6.007326   -4.867539
     81          1           0       -0.448591    4.771397   -4.412216
     82          6           0        2.619384    5.444753   -2.887830
     83          1           0        2.998274    5.488179   -1.851274
     84          1           0        2.794710    6.427984   -3.358730
     85          1           0        3.212797    4.697411   -3.441439
     86          1           0       -3.631603    5.212732    1.258385
     87          6           0       -3.299683    5.252458    2.310435
     88          1           0       -2.265345    5.637033    2.335572
     89          1           0       -3.939392    5.982608    2.835087
     90          6           0       -4.888575    3.431798    2.946238
     91          1           0       -5.228788    3.310813    1.902399
     92          1           0       -5.530036    4.188904    3.430544
     93          1           0       -5.042926    2.474363    3.472658
     94          6           0       -2.967877    4.028131    4.464429
     95          1           0       -3.099954    3.088251    5.027446
     96          1           0       -3.569319    4.807143    4.965191
     97          1           0       -1.905133    4.322593    4.525944
 ---------------------------------------------------------------------
 Rotational constants (GHZ):           0.0524228           0.0499838           0.0393592
 Standard basis: def2SVPP (5D, 7F)
 There are   895 symmetry adapted cartesian basis functions of A   symmetry.
 There are   841 symmetry adapted basis functions of A   symmetry.
   841 basis functions,  1531 primitive gaussians,   895 cartesian basis functions
   188 alpha electrons      187 beta electrons
       nuclear repulsion energy      7450.7388088416 Hartrees.
 NAtoms=   97 NActive=   97 NUniq=   97 SFac= 1.00D+00 NAtFMM=   60 NAOKFM=T Big=T
 Integral buffers will be    131072 words long.
 Raffenetti 2 integral format.
 Two-electron integral symmetry is turned on.
 Nuclear repulsion after empirical dispersion term =     7450.6236520848 Hartrees.
 ------------------------------------------------------------------------------
 Polarizable Continuum Model (PCM)
 =================================
 Model                : PCM.
 Atomic radii         : SMD-Coulomb.
 Polarization charges : Total charges.
 Charge compensation  : None.
 Solution method      : On-the-fly selection.
 Cavity type          : VdW (van der Waals Surface) (Alpha=1.000).
 Cavity algorithm     : GePol (No added spheres)
                        Default sphere list used, NSphG=   97.
                        Lebedev-Laikov grids with approx.  5.0 points / Ang**2.
                        Smoothing algorithm: York/Karplus (Gamma=1.0000).
                        Polarization charges: spherical gaussians, with
                                              point-specific exponents (IZeta= 3).
                        Self-potential: point-specific (ISelfS= 7).
                        Self-field    : sphere-specific E.n sum rule (ISelfD= 2).
 1st derivatives      : Analytical E(r).r(x)/FMM algorithm (CHGder, D1EAlg=3).
                        Cavity 1st derivative terms included.
 Solvent              : Acetonitrile, Eps=  35.688000 Eps(inf)=   1.806874
 ------------------------------------------------------------------------------
 ------------------------------------------------------------------------------
 Atomic radii for non-electrostatic terms: SMD-CDS.
 ------------------------------------------------------------------------------
 Nuclear repulsion after PCM non-electrostatic terms =     7450.6073307650 Hartrees.
 One-electron integrals computed using PRISM.
   1 Symmetry operations used in ECPInt.
 ECPInt:  NShTT=   84666 NPrTT=  335792 LenC2=   68936 LenP2D=  165121.
 LDataN:  DoStor=T MaxTD1= 7 Len=  274
 NBasis=   841 RedAO= T EigKep=  2.37D-04  NBF=   841
 NBsUse=   841 1.00D-06 EigRej= -1.00D+00 NBFU=   841
 ExpMin= 4.98D-02 ExpMax= 1.71D+03 ExpMxC= 2.58D+02 IAcc=3 IRadAn=         7 AccDes= 0.00D+00
 Harris functional with IExCor= 4639 and IRadAn=       7 diagonalized for initial guess.
 HarFok:  IExCor= 4639 AccDes= 0.00D+00 IRadAn=         7 IDoV= 1 UseB2=F ITyADJ=14
 ICtDFT=  3500011 ScaDFX=  1.000000  1.000000  1.000000  1.000000
 FoFCou: FMM=F IPFlag=           0 FMFlag=      100000 FMFlg1=        2001
         NFxFlg=           0 DoJE=T BraDBF=F KetDBF=T FulRan=T
         wScrn=  0.000000 ICntrl=       500 IOpCl=  0 I1Cent=   200000004 NGrid=           0
         NMat0=    1 NMatS0=      1 NMatT0=    0 NMatD0=    1 NMtDS0=    0 NMtDT0=    0
 Petite list used in FoFCou.
 Initial guess <Sx>= 0.0000 <Sy>= 0.0000 <Sz>= 0.5000 <S**2>= 0.7500 S= 0.5000
 Requested convergence on RMS density matrix=1.00D-08 within 500 cycles.
 Requested convergence on MAX density matrix=1.00D-06.
 Requested convergence on             energy=1.00D-06.
 No special actions if energy rises.
 Inv3:  Mode=1 IEnd=   135354267.
 Iteration    1 A*A^-1 deviation from unit magnitude is 9.33D-15 for   6714.
 Iteration    1 A*A^-1 deviation from orthogonality  is 3.73D-15 for   6707   6444.
 Iteration    1 A^-1*A deviation from unit magnitude is 9.33D-15 for   6714.
 Iteration    1 A^-1*A deviation from orthogonality  is 3.23D-14 for   6180   6135.
 EnCoef did   100 forward-backward iterations
 Restarting incremental Fock formation.
 Error on total polarization charges =  0.07539
 SCF Done:  E(UwB97XD) =  -2176.66114124     A.U. after   31 cycles
            NFock= 31  Conv=0.43D-08     -V/T= 2.0439
 <Sx>= 0.0000 <Sy>= 0.0000 <Sz>= 0.5000 <S**2>= 0.7815 S= 0.5156
 <L.S>= 0.000000000000E+00
 SMD-CDS (non-electrostatic) energy       (kcal/mol) =     -10.24
 (included in total energy above)
 Annihilation of the first spin contaminant:
 S**2 before annihilation     0.7815,   after     0.7509

 **********************************************************************

            Population analysis using the SCF Density.

 **********************************************************************

 Orbital symmetries:
 Alpha Orbitals:
       Occupied  (A) (A) (A) (A) (A) (A) (A) (A) (A) (A) (A) (A)
                 (A) (A) (A) (A) (A) (A) (A) (A) (A) (A) (A) (A)
                 (A) (A) (A) (A) (A) (A) (A) (A) (A) (A) (A) (A)
                 (A) (A) (A) (A) (A) (A) (A) (A) (A) (A) (A) (A)
                 (A) (A) (A) (A) (A) (A) (A) (A) (A) (A) (A) (A)
                 (A) (A) (A) (A) (A) (A) (A) (A) (A) (A) (A) (A)
                 (A) (A) (A) (A) (A) (A) (A) (A) (A) (A) (A) (A)
                 (A) (A) (A) (A) (A) (A) (A) (A) (A) (A) (A) (A)
                 (A) (A) (A) (A) (A) (A) (A) (A) (A) (A) (A) (A)
                 (A) (A) (A) (A) (A) (A) (A) (A) (A) (A) (A) (A)
                 (A) (A) (A) (A) (A) (A) (A) (A) (A) (A) (A) (A)
                 (A) (A) (A) (A) (A) (A) (A) (A) (A) (A) (A) (A)
                 (A) (A) (A) (A) (A) (A) (A) (A) (A) (A) (A) (A)
                 (A) (A) (A) (A) (A) (A) (A) (A) (A) (A) (A) (A)
                 (A) (A) (A) (A) (A) (A) (A) (A) (A) (A) (A) (A)
                 (A) (A) (A) (A) (A) (A) (A) (A)
       Virtual   (A) (A) (A) (A) (A) (A) (A) (A) (A) (A) (A) (A)
                 (A) (A) (A) (A) (A) (A) (A) (A) (A) (A) (A) (A)
                 (A) (A) (A) (A) (A) (A) (A) (A) (A) (A) (A) (A)
                 (A) (A) (A) (A) (A) (A) (A) (A) (A) (A) (A) (A)
                 (A) (A) (A) (A) (A) (A) (A) (A) (A) (A) (A) (A)
                 (A) (A) (A) (A) (A) (A) (A) (A) (A) (A) (A) (A)
                 (A) (A) (A) (A) (A) (A) (A) (A) (A) (A) (A) (A)
                 (A) (A) (A) (A) (A) (A) (A) (A) (A) (A) (A) (A)
                 (A) (A) (A) (A) (A) (A) (A) (A) (A) (A) (A) (A)
                 (A) (A) (A) (A) (A) (A) (A) (A) (A) (A) (A) (A)
                 (A) (A) (A) (A) (A) (A) (A) (A) (A) (A) (A) (A)
                 (A) (A) (A) (A) (A) (A) (A) (A) (A) (A) (A) (A)
                 (A) (A) (A) (A) (A) (A) (A) (A) (A) (A) (A) (A)
                 (A) (A) (A) (A) (A) (A) (A) (A) (A) (A) (A) (A)
                 (A) (A) (A) (A) (A) (A) (A) (A) (A) (A) (A) (A)
                 (A) (A) (A) (A) (A) (A) (A) (A) (A) (A) (A) (A)
                 (A) (A) (A) (A) (A) (A) (A) (A) (A) (A) (A) (A)
                 (A) (A) (A) (A) (A) (A) (A) (A) (A) (A) (A) (A)
                 (A) (A) (A) (A) (A) (A) (A) (A) (A) (A) (A) (A)
                 (A) (A) (A) (A) (A) (A) (A) (A) (A) (A) (A) (A)
                 (A) (A) (A) (A) (A) (A) (A) (A) (A) (A) (A) (A)
                 (A) (A) (A) (A) (A) (A) (A) (A) (A) (A) (A) (A)
                 (A) (A) (A) (A) (A) (A) (A) (A) (A) (A) (A) (A)
                 (A) (A) (A) (A) (A) (A) (A) (A) (A) (A) (A) (A)
                 (A) (A) (A) (A) (A) (A) (A) (A) (A) (A) (A) (A)
                 (A) (A) (A) (A) (A) (A) (A) (A) (A) (A) (A) (A)
                 (A) (A) (A) (A) (A) (A) (A) (A) (A) (A) (A) (A)
                 (A) (A) (A) (A) (A) (A) (A) (A) (A) (A) (A) (A)
                 (A) (A) (A) (A) (A) (A) (A) (A) (A) (A) (A) (A)
                 (A) (A) (A) (A) (A) (A) (A) (A) (A) (A) (A) (A)
                 (A) (A) (A) (A) (A) (A) (A) (A) (A) (A) (A) (A)
                 (A) (A) (A) (A) (A) (A) (A) (A) (A) (A) (A) (A)
                 (A) (A) (A) (A) (A) (A) (A) (A) (A) (A) (A) (A)
                 (A) (A) (A) (A) (A) (A) (A) (A) (A) (A) (A) (A)
                 (A) (A) (A) (A) (A) (A) (A) (A) (A) (A) (A) (A)
                 (A) (A) (A) (A) (A) (A) (A) (A) (A) (A) (A) (A)
                 (A) (A) (A) (A) (A) (A) (A) (A) (A) (A) (A) (A)
                 (A) (A) (A) (A) (A) (A) (A) (A) (A) (A) (A) (A)
                 (A) (A) (A) (A) (A) (A) (A) (A) (A) (A) (A) (A)
                 (A) (A) (A) (A) (A) (A) (A) (A) (A) (A) (A) (A)
                 (A) (A) (A) (A) (A) (A) (A) (A) (A) (A) (A) (A)
                 (A) (A) (A) (A) (A) (A) (A) (A) (A) (A) (A) (A)
                 (A) (A) (A) (A) (A) (A) (A) (A) (A) (A) (A) (A)
                 (A) (A) (A) (A) (A) (A) (A) (A) (A) (A) (A) (A)
                 (A) (A) (A) (A) (A) (A) (A) (A) (A) (A) (A) (A)
                 (A) (A) (A) (A) (A) (A) (A) (A) (A) (A) (A) (A)
                 (A) (A) (A) (A) (A) (A) (A) (A) (A) (A) (A) (A)
                 (A) (A) (A) (A) (A) (A) (A) (A) (A) (A) (A) (A)
                 (A) (A) (A) (A) (A) (A) (A) (A) (A) (A) (A) (A)
                 (A) (A) (A) (A) (A) (A) (A) (A) (A) (A) (A) (A)
                 (A) (A) (A) (A) (A) (A) (A) (A) (A) (A) (A) (A)
                 (A) (A) (A) (A) (A) (A) (A) (A) (A) (A) (A) (A)
                 (A) (A) (A) (A) (A) (A) (A) (A) (A) (A) (A) (A)
                 (A) (A) (A) (A) (A) (A) (A) (A) (A) (A) (A) (A)
                 (A) (A) (A) (A) (A)
 Beta  Orbitals:
       Occupied  (A) (A) (A) (A) (A) (A) (A) (A) (A) (A) (A) (A)
                 (A) (A) (A) (A) (A) (A) (A) (A) (A) (A) (A) (A)
                 (A) (A) (A) (A) (A) (A) (A) (A) (A) (A) (A) (A)
                 (A) (A) (A) (A) (A) (A) (A) (A) (A) (A) (A) (A)
                 (A) (A) (A) (A) (A) (A) (A) (A) (A) (A) (A) (A)
                 (A) (A) (A) (A) (A) (A) (A) (A) (A) (A) (A) (A)
                 (A) (A) (A) (A) (A) (A) (A) (A) (A) (A) (A) (A)
                 (A) (A) (A) (A) (A) (A) (A) (A) (A) (A) (A) (A)
                 (A) (A) (A) (A) (A) (A) (A) (A) (A) (A) (A) (A)
                 (A) (A) (A) (A) (A) (A) (A) (A) (A) (A) (A) (A)
                 (A) (A) (A) (A) (A) (A) (A) (A) (A) (A) (A) (A)
                 (A) (A) (A) (A) (A) (A) (A) (A) (A) (A) (A) (A)
                 (A) (A) (A) (A) (A) (A) (A) (A) (A) (A) (A) (A)
                 (A) (A) (A) (A) (A) (A) (A) (A) (A) (A) (A) (A)
                 (A) (A) (A) (A) (A) (A) (A) (A) (A) (A) (A) (A)
                 (A) (A) (A) (A) (A) (A) (A)
       Virtual   (A) (A) (A) (A) (A) (A) (A) (A) (A) (A) (A) (A)
                 (A) (A) (A) (A) (A) (A) (A) (A) (A) (A) (A) (A)
                 (A) (A) (A) (A) (A) (A) (A) (A) (A) (A) (A) (A)
                 (A) (A) (A) (A) (A) (A) (A) (A) (A) (A) (A) (A)
                 (A) (A) (A) (A) (A) (A) (A) (A) (A) (A) (A) (A)
                 (A) (A) (A) (A) (A) (A) (A) (A) (A) (A) (A) (A)
                 (A) (A) (A) (A) (A) (A) (A) (A) (A) (A) (A) (A)
                 (A) (A) (A) (A) (A) (A) (A) (A) (A) (A) (A) (A)
                 (A) (A) (A) (A) (A) (A) (A) (A) (A) (A) (A) (A)
                 (A) (A) (A) (A) (A) (A) (A) (A) (A) (A) (A) (A)
                 (A) (A) (A) (A) (A) (A) (A) (A) (A) (A) (A) (A)
                 (A) (A) (A) (A) (A) (A) (A) (A) (A) (A) (A) (A)
                 (A) (A) (A) (A) (A) (A) (A) (A) (A) (A) (A) (A)
                 (A) (A) (A) (A) (A) (A) (A) (A) (A) (A) (A) (A)
                 (A) (A) (A) (A) (A) (A) (A) (A) (A) (A) (A) (A)
[...]
 1,0.00000118,-0.00000031,0.00000073,0.00000120,0.00000005,-0.00000116,
 -0.00000027,0.00000005,0.00000017,-0.00001901,0.00000295,-0.00002122,-
 0.00000109,-0.00000038,0.00000051,-0.00000070,0.00000005,0.00000031,0.
 00000045,0.00000003,0.00000062,-0.00026014,0.00048327,0.00095205,0.000
 00130,-0.00000111,0.00000162,-0.00000018,-0.00000010,-0.00000014,-0.00
 000080,-0.00000036,0.00000033,-0.00000020,-0.00000034,0.,0.00000141,0.
 00000053,0.00000184,0.00000056,-0.00000015,-0.00000083,0.,0.00000174,0
 .00000039,-0.00000091,-0.00000009,0.00000030,0.00000160,-0.00000137,0.
 00000050,0.00000004,0.00000021,-0.00000021,0.00181762,-0.00256561,-0.0
 0035327,0.00000113,-0.00000523,0.00000001,-0.00000034,-0.00000040,0.00
 000008,-0.00000028,-0.00000019,0.00000019,0.00000010,0.00000047,-0.000
 00051,0.00000037,-0.00000003,-0.00000015,0.00000035,-0.00000064,0.0000
 0049,0.00000035,-0.00000019,0.,0.00000221,0.00000327,-0.00000156,-0.00
 000014,-0.00000027,-0.00000017,-0.00000051,0.00000078,0.00000197,-0.00
 000032,-0.00000023,0.00000002,-0.00000265,0.00000250,0.00000207,0.0000
 0004,-0.00000020,-0.00000031,0.00000178,0.00000127,0.00000022,0.000000
 18,-0.00000020,-0.00000027,-0.00022890,0.00015432,0.00000573,-0.000154
 27,0.00044097,-0.00135655,-0.00006047,-0.00002132,0.00007732,0.0001141
 8,0.00031623,-0.00031788,0.00008814,-0.00007104,-0.00013073,-0.0001073
 3,0.00009083,-0.00009421,-0.00027504,-0.00007542,0.00015911,-0.0000088
 3,0.00001874,0.00001337,0.10488923,-0.18142415,0.08519302,0.01429208,-
 0.01489485,0.01273057,-0.11444988,0.18933743,0.00021012,-0.00016324,0.
 00014313,-0.00002138,0.00000392,0.00000441,-0.00036847,0.00040702,-0.0
 0045381,0.00000729,-0.00001314,0.00000531,-0.00002672,0.00001912,-0.00
 006795,0.00000717,0.00000055,-0.00000349,-0.00005570,0.00002800,-0.000
 06054,-0.00025464,-0.00055785,0.00031386,-0.00001295,-0.00002172,0.000
 00114,-0.00003185,-0.00000562,0.00001747,0.00000368,-0.00000317,-0.000
 00104,0.00000965,-0.00000132,-0.00000549,0.00007183,0.00016201,0.00008
 371,0.00001194,-0.00001064,0.00000206,-0.00001799,-0.00000732,0.000002
 16,0.00000011,0.00000494,0.00001102,-0.00000113,-0.00000034,0.00000387
 ,0.00002683,0.00000942,-0.00003151,-0.00000149,0.00000390,0.00000464,-
 0.00006347,-0.00003675,-0.00008437,0.00000969,0.00001960,0.00001255,0.
 00001071,0.00000513,-0.00000905,-0.00000117,-0.00000123,-0.00000002,-0
 .00000116,0.00000726,0.00000825,0.00000169,0.00000028,0.00000116,0.000
 00355,0.00000281,0.00000202,-0.00000002,0.00000151,0.00000251,-0.00002
 531,0.00005762,-0.00001907,-0.00000094,-0.00000008,-0.00000320,-0.0000
 0208,-0.00000530,0.00000558,-0.00003182,-0.00003497,-0.00004189,-0.000
 00728,0.00000183,-0.00000404,-0.00000004,-0.00000715,0.00000253,0.0000
 1553,0.00000600,-0.00001569,-0.00108527,0.00114647,-0.00055748,0.00015
 081,0.00005128,-0.00011639,-0.00001731,0.00001005,-0.00001030,-0.00000
 222,0.00000239,-0.00000412,-0.00000004,0.00000316,0.00000112,0.0000007
 0,-0.00000048,-0.00000050,0.00000023,-0.00000232,-0.00000321,-0.000000
 32,-0.00000037,0.00000081,-0.00053866,0.00055033,-0.00022085,0.0001580
 7,0.00008563,0.00004557,0.00020235,-0.00032467,0.00056859,-0.00000450,
 0.00004717,-0.00003375,-0.00000260,-0.00000316,-0.00000020,0.00000122,
 -0.00000013,-0.00000030,0.00000367,-0.00000020,-0.00000046,0.00000061,
 0.00000097,0.00000103,-0.00000959,0.00001050,-0.00000805,-0.00000384,0
 .00000167,-0.00000236,-0.00000198,-0.00000048,0.00000321,0.00000085,-0
 .00000028,-0.00000051,0.00004077,-0.00000885,0.00005291,-0.00000177,0.
 00000249,-0.00000166,0.00000350,0.00000040,-0.00000252,-0.00000119,0.,
 -0.00000164,0.00342880,-0.00152277,-0.00470403,0.00000179,0.00000114,-
 0.00000319,-0.00000176,-0.00000008,0.00000102,0.00000236,0.00000104,-0
 .00000153,0.00000064,0.00000067,0.00000006,-0.00000291,-0.00000224,-0.
 00000543,-0.00000103,0.00000083,0.00000154,0.,-0.00000405,-0.00000088,
 0.00000117,0.00000055,-0.00000013,-0.00000201,0.00000293,-0.00000170,-
 0.00000052,-0.00000058,0.00000067,-0.01672809,0.02169968,-0.01563456,-
 0.00000351,0.00001424,-0.00000131,0.00000096,0.00000168,-0.00000016,0.
 00000069,0.00000037,-0.00000023,-0.00000104,0.00000010,0.00000055,-0.0
 0000083,0.00000012,0.00000028,-0.00000182,0.00000111,-0.00000031,-0.00
 000079,0.00000031,0.00000005,-0.00000498,-0.00000907,0.00000374,0.0000
 0045,0.00000048,0.00000081,0.00000116,-0.00000172,-0.00000498,0.000000
 52,0.00000074,0.00000005,0.00000697,-0.00000689,-0.00000544,-0.0000005
 5,0.00000055,0.00000098,-0.00000459,-0.00000282,-0.00000059,-0.0000000
 7,0.00000030,0.00000079,0.00014262,0.00006797,0.00035031,-0.00070202,0
 .00108572,0.00077040,0.00000174,-0.00010047,-0.00000703,0.00028697,-0.
 00058868,-0.00026352,-0.00123083,-0.00008505,0.00121713,-0.00007878,-0
 .00031612,0.00012548,0.00051630,-0.00009760,0.00016143,0.00012079,-0.0
 0000824,-0.00001329,-0.06652876,0.08308945,-0.09956402,0.01018146,-0.0
 1054164,0.00802439,0.07066914,-0.09182241,0.10943381,-0.00003395,0.000
 02961,-0.00003633,0.00000436,0.00000009,-0.00000055,0.00011859,-0.0000
 4945,0.00005538,-0.00000108,0.00000160,0.00000037,0.00000903,-0.000001
 39,0.00000989,0.00000012,0.00000442,0.00000421,0.00000942,-0.00000781,
 0.00001544,-0.00007336,0.00006461,0.00009272,0.00000031,0.00000302,0.0
 0000052,0.00000545,0.00000280,-0.00000514,-0.00000055,0.00000063,0.000
 00007,-0.00000046,0.00000023,0.00000008,-0.00000015,-0.00003064,-0.000
 02530,-0.00000391,0.00000244,0.00000070,0.00000066,0.00000008,-0.00000
 022,0.00000117,-0.00000028,-0.00000253,-0.00000077,0.00000016,-0.00000
 086,-0.00000716,-0.00000207,0.00000524,0.00000077,0.00000050,-0.000000
 56,0.00001126,0.00000798,0.00002051,-0.00000378,-0.00000455,-0.0000013
 7,-0.00000165,-0.00000240,-0.00000143,0.00000081,0.00000004,0.00000023
 ,0.00000008,-0.00000069,0.00000008,-0.00000022,0.00000076,-0.00000033,
 0.00000168,0.00000136,0.00000029,-0.00000003,-0.00000066,-0.00000064,0
 .00000622,-0.00001251,0.00000363,0.00000008,0.00000008,0.00000067,0.00
 000181,0.00000110,-0.00000243,0.00000594,0.00000761,0.00001086,0.00000
 081,-0.00000044,0.00000133,0.00000687,-0.00000093,-0.00000105,-0.00000
 329,-0.00000509,0.00000532,0.00026407,-0.00027830,0.00021975,0.0000184
 7,0.00000754,-0.00002650,0.00000547,-0.00000204,0.00000204,0.00000037,
 -0.00000043,0.00000063,0.00000002,-0.00000107,0.00000009,-0.00000026,0
 .00000030,-0.00000029,0.00000012,0.00000033,0.00000066,-0.00000026,-0.
 00000001,-0.00000034,0.00010338,-0.00036747,0.00012961,0.00005517,0.00
 005025,0.00000550,-0.00016214,0.00000425,-0.00003723,0.00000915,-0.000
 01078,0.00000601,-0.00000011,-0.00000131,-0.00000017,-0.00000033,0.000
 00026,-0.00000052,-0.00000111,-0.00000020,0.00000052,-0.00000028,0.000
 00002,-0.00000008,0.00000153,-0.00000191,0.00000142,0.00000079,-0.0000
 0044,0.00000045,-0.00000050,0.00000045,-0.00000061,-0.00000024,0.00000
 016,0.00000002,-0.00000983,0.00000210,-0.00000987,0.00000353,-0.000001
 34,0.00000005,-0.00000137,-0.00000031,0.00000112,0.00000019,-0.0000000
 2,0.00000026,0.00028308,0.00093650,-0.00062380,-0.00000416,0.00000009,
 0.00000185,0.00000183,0.00000009,-0.00000115,0.00000027,-0.00000003,0.
 00000017,-0.00000024,-0.00000005,-0.00000018,-0.00000097,0.00000057,0.
 00000323,0.00000046,-0.00000029,-0.00000035,0.00000003,0.00000090,-0.0
 0000004,0.00000091,-0.00000016,-0.00000106,-0.00000132,-0.00000038,0.0
 0000126,0.00000037,0.00000023,-0.00000052,-0.00697967,-0.00192304,-0.0
 0113796,0.00000130,-0.00000335,-0.00000012,0.00000016,0.00000014,0.000
 00043,-0.00000024,0.00000010,-0.00000014,0.00000051,-0.00000093,0.0000
 0060,0.00000023,-0.00000013,-0.00000003,0.00000099,0.00000029,-0.00000
 069,0.00000003,0.00000005,-0.00000004,0.00000007,0.00000199,-0.0000005
 6,-0.00000007,0.00000001,-0.00000066,-0.00000016,0.00000037,0.00000083
 ,0.00000047,-0.00000009,-0.00000025,-0.00000216,0.00000124,0.00000227,
 0.00000093,-0.00000002,-0.00000093,0.00000108,0.00000051,0.00000017,0.
 00000004,0.00000016,-0.00000031,0.00020820,0.00006466,0.00006517,0.000
 39099,-0.00014616,-0.00057277,0.00010778,0.00036733,0.00016338,0.00001
 347,-0.00002672,0.00003811,0.00065934,-0.00015600,0.00270728,-0.000582
 04,-0.00030402,0.00013638,0.00028311,0.00002169,-0.00007944,0.00005537
 ,0.00001336,-0.00012473,-0.29709616,-0.07066192,0.01165949,-0.00023377
 ,0.00064677,0.00015375,-0.01246898,-0.00565378,0.00157270,0.31501801,-
 0.00000238,-0.00000458,0.00000871,0.00000115,0.00000008,-0.00000013,-0
 .00002344,-0.00004056,-0.00003558,-0.00000183,0.00000080,0.00000064,0.
 00000009,-0.00000040,-0.00000406,-0.00000166,0.00000123,-0.00000054,-0
 .00000119,0.00000085,-0.00000221,-0.00001194,0.00003139,0.00001852,-0.
 00000212,-0.00000094,0.00000178,-0.00000183,0.00000039,0.,0.00000025,0
 .00000005,0.00000002,0.00000146,-0.00000004,-0.00000132,0.00000019,0.0
 0000472,0.00001032,-0.00000197,0.00000095,0.00000102,0.00000040,-0.000
 00018,-0.00000004,0.00000140,0.00000105,-0.00000043,-0.00000061,0.0000
 0008,0.00000008,0.00000097,-0.00000026,0.00000035,0.00000039,0.0000012
 3,0.00000051,-0.00000047,-0.00000013,-0.00000411,-0.00000022,0.0000012
 2,-0.00000016,-0.00000150,0.00000140,-0.00000102,0.00000172,-0.0000004
 6,0.00000077,0.00000030,0.00000014,-0.00000029,0.00000019,0.00000041,-
 0.00000009,0.00000094,0.00000139,-0.00000052,0.00000008,-0.00000108,-0
 .00000008,-0.00000052,0.00000077,-0.00000082,-0.00000015,-0.00000004,0
 .,0.00000213,-0.00000019,-0.00000177,-0.00000007,-0.00000153,0.0000000
 8,-0.00000018,0.00000018,0.,0.00001002,-0.00000431,-0.00000194,-0.0000
 0157,-0.00000152,0.00000247,0.00009457,0.00002110,-0.00000179,-0.00001
 202,0.00000862,-0.00000158,0.00000055,0.00000015,-0.00000041,-0.000000
 05,0.00000017,-0.00000030,-0.00000016,-0.00000024,0.00000025,0.0000000
 2,0.00000008,-0.00000024,-0.00000010,-0.00000020,-0.00000015,-0.000000
 20,-0.00000012,-0.00000002,-0.00008989,-0.00010116,-0.00015844,-0.0000
 3305,0.00006822,0.00006339,0.00011769,0.00001592,0.00005003,-0.0000005
 6,-0.00000396,0.00000296,-0.00000084,-0.00000172,-0.00000027,0.0000000
 6,0.00000017,-0.00000034,-0.00000091,-0.00000040,0.00000024,0.,-0.0000
 0005,0.00000028,0.00000012,0.00000123,-0.00000234,-0.00000004,-0.00000
 010,0.00000008,-0.00000197,0.00000044,0.00000016,-0.00000003,0.0000002
 4,0.00000003,0.00000151,0.00000017,0.00000299,0.00000524,-0.00000145,0
 .00000003,-0.00000075,-0.00000037,0.00000090,-0.00000010,0.00000011,-0
 .00000016,-0.00086762,0.00008354,-0.00004768,-0.00000726,0.00000128,-0
 .00000064,0.00000262,0.00000076,-0.00000056,0.00000068,0.00000012,-0.0
 0000030,-0.00000004,0.00000007,-0.00000005,-0.00000030,-0.00000022,0.0
 0000042,0.00000049,0.00000016,-0.00000033,0.00000008,-0.00000024,-0.00
 000020,-0.00000028,0.00000038,0.00000004,-0.00000331,0.00000101,0.0000
 0033,0.00000048,0.00000020,0.,-0.00261045,-0.00267783,0.00021932,-0.00
 000057,0.00000120,-0.00000017,0.00000017,0.00000049,0.00000031,0.,0.00
 000012,-0.00000010,0.00000051,-0.00000171,0.00000116,-0.00000011,0.000
 00006,0.00000018,0.00000073,0.00000095,-0.00000146,-0.00000018,0.00000
 029,0.00000003,-0.00000034,-0.00000083,0.00000033,0.00000010,-0.000000
 09,0.00000010,0.00000003,-0.00000007,-0.00000044,0.00000028,0.00000019
 ,-0.00000014,0.00000006,-0.00000090,0.00000039,0.00000023,0.00000050,-
 0.00000026,-0.00000016,-0.00000021,-0.00000031,0.00000022,-0.00000005,
 0.00000025,0.00006171,-0.00002555,0.00011921,0.00079099,0.00017428,-0.
 00037308,0.00011605,0.00016672,-0.00023584,0.00001603,0.00000663,0.000
 04892,0.00003817,0.00044586,0.00099074,-0.00038783,0.00033365,0.000040
 62,-0.00021270,0.00005904,-0.00013034,0.00024719,0.00015754,0.00006809
 ,-0.07064802,-0.06962377,0.00296567,-0.02518321,-0.00461049,0.00289381
 ,0.02118870,0.00814891,-0.00230218,0.07740978,0.06735906,-0.00000250,-
 0.00000362,0.00000718,0.00000010,-0.00000053,-0.00000034,-0.00001252,-
 0.00004637,0.00000686,0.00000059,0.00000045,-0.00000083,-0.00000542,-0
 .00000006,-0.00000146,-0.00000099,-0.00000158,-0.00000162,0.00000057,0
 .00000140,-0.00000220,0.00004085,0.00003878,-0.00010145,0.00000088,0.0
 0000040,-0.00000026,-0.00000003,-0.00000074,0.00000061,-0.00000001,-0.
 00000005,0.00000008,-0.00000061,-0.00000031,0.00000038,-0.00000263,0.0
 0000719,0.00001353,0.00000052,-0.00000023,-0.00000006,0.00000104,0.000
 00013,-0.00000026,-0.00000070,-0.00000023,0.00000042,0.00000072,-0.000
 00011,0.00000029,0.00000128,0.00000021,0.00000052,-0.00000073,-0.00000
 088,-0.00000004,0.00000033,-0.00000111,-0.00000438,0.00000256,0.000002
 04,0.00000072,-0.00000039,0.00000078,0.00000109,-0.00000007,0.00000008
 ,0.00000013,0.00000007,-0.00000041,-0.00000075,-0.00000001,-0.00000026
 ,-0.00000011,-0.00000112,-0.00000068,-0.00000005,-0.00000007,-0.000000
 10,0.00000004,-0.00000112,0.00000129,-0.00000057,0.00000008,-0.0000000
 4,-0.00000007,-0.00000046,0.00000010,0.00000049,-0.00000030,-0.0000005
 2,-0.00000122,0.00000024,0.,-0.00000044,-0.00000175,-0.00000048,0.0000
 0011,0.00000137,0.00000126,0.00000038,-0.00011027,-0.00015785,0.000152
 19,-0.00001568,-0.00001593,0.00001684,-0.00000085,0.00000008,-0.000000
 08,0.00000002,0.,0.00000001,0.00000017,0.00000051,-0.00000025,0.000000
 04,-0.00000019,0.00000029,0.00000011,0.00000012,-0.00000013,0.00000004
 ,0.,0.00000009,-0.00018113,-0.00006075,-0.00000422,-0.00001772,-0.0000
 4381,0.00004139,0.00006216,0.00009050,0.00002256,-0.00001257,0.0000113
 3,-0.00001177,0.00000042,0.00000118,0.00000004,0.00000006,-0.00000022,
 0.00000052,0.00000018,-0.00000015,-0.00000026,0.,0.00000005,0.00000006
 ,0.00000011,0.00000008,-0.00000029,-0.00000002,0.00000003,0.00000003,0
 .00000035,-0.00000011,-0.00000017,0.00000005,-0.00000001,0.00000004,0.
 00000143,-0.00000064,0.00000067,-0.00000093,0.00000061,-0.00000028,0.0
 0000022,0.00000005,-0.00000015,-0.00000001,0.00000001,0.,0.00158058,-0
 .00029229,0.00104960,0.00000147,-0.00000109,-0.00000005,-0.00000022,0.
 00000015,0.00000068,-0.00000036,-0.00000004,0.00000017,0.00000007,0.00
 000004,0.00000006,0.00000126,0.00000025,-0.00000057,-0.00000028,0.0000
 0027,0.00000002,0.,-0.00000005,0.00000043,-0.00000068,-0.00000007,0.00
 000038,0.00000052,-0.00000056,0.00000004,0.00000006,0.00000011,0.00000
 014,0.02911478,0.00859184,-0.00106621,-0.00000030,0.00000055,0.0000003
 6,-0.00000016,-0.00000033,-0.00000028,0.00000008,-0.00000010,0.0000000
 5,-0.00000012,0.00000033,-0.00000037,0.00000009,0.,0.00000006,-0.00000
 013,-0.00000030,0.00000030,0.00000004,0.00000001,0.00000003,0.00000054
 ,-0.00000024,0.,-0.00000004,-0.00000003,0.00000031,-0.00000004,-0.0000
 0004,0.00000005,-0.00000030,-0.00000002,0.00000015,0.00000050,-0.00000
 009,-0.00000058,-0.00000047,-0.00000014,0.00000026,-0.00000016,0.00000
 004,0.00000010,0.00000003,-0.00000009,0.00000012,-0.00020725,0.0001607
 9,0.00010653,0.00045839,0.00090112,0.00138442,-0.00027733,-0.00031060,
 -0.00020959,-0.00002303,-0.00008033,-0.00004167,0.00099810,0.00044460,
 -0.00627936,0.00193075,0.00053773,-0.00009159,-0.00010844,-0.00017680,
 0.00006611,-0.00016945,0.00006716,0.00005225,0.00879263,0.00212503,-0.
 04855750,-0.01494427,-0.00225022,0.00090111,-0.01249019,-0.00533593,0.
 00058366,-0.01440268,-0.00420132,0.05196652\\-0.00005297,0.00015847,0.
 00030618,0.00027752,-0.00062145,-0.00033133,-0.00009826,-0.00021193,0.
 00019870,0.00040796,-0.00009407,-0.00033109,0.00020589,-0.00053045,-0.
 00023329,-0.00039982,0.00014019,-0.00031073,-0.00059471,0.00109145,0.0
 0025167,0.00007029,0.00011845,0.00009196,-0.00001800,0.00002639,-0.000
 05797,-0.00010602,-0.00010661,0.00019063,0.00015069,0.00002026,0.00004
 530,0.00000194,-0.00003188,0.00001992,-0.00013513,0.00000198,-0.000075
 61,-0.00011192,0.00001150,0.00000189,0.00016495,0.00004847,0.00002501,
 0.00008049,0.00011877,0.00010322,0.00000077,-0.00010026,-0.00007841,0.
 00012743,-0.00024511,0.00006801,0.00002449,0.00002667,-0.00002191,0.00
 010374,-0.00001646,-0.00005073,0.00009173,-0.00011468,-0.00002810,-0.0
 0004076,0.00021013,0.00010580,0.00007082,0.00009362,0.00008608,0.00000
 208,-0.00003554,-0.00000457,-0.00005202,-0.00007050,0.00001898,-0.0001
 4074,-0.00008243,-0.00009900,0.00000608,-0.00003645,0.00000299,-0.0000
 1992,0.00006301,-0.00002628,0.00005466,0.00004522,0.00001287,0.0000136
 2,0.00003096,-0.00003069,0.00011301,0.00010259,0.00003004,-0.00011939,
 0.00001342,0.00004601,0.00002859,-0.00015058,-0.00002419,-0.00009049,0
 .00000299,0.00004971,0.00000586,-0.00002033,0.00003457,-0.00008791,0.0
 0002316,-0.00001307,-0.00000418,-0.00005086,0.00004095,0.00004029,0.00
 000874,-0.00000076,0.00000532,-0.00002573,-0.00003475,0.00003504,-0.00
 000325,0.00000673,0.00002709,0.00001369,0.00001435,0.00009151,0.000010
 02,-0.00008222,-0.00008959,0.00009817,-0.00004929,0.00001702,-0.000082
 19,0.00007838,-0.00003165,0.00002267,-0.00000716,-0.00003864,0.0000224
 8,0.00001984,-0.00002858,0.00002176,0.00001723,-0.00000079,0.00000654,
 0.00000542,0.00001672,0.00000154,0.00001623,-0.00000423,-0.00001957,-0
 .00003206,0.00009225,0.00005857,0.00006672,-0.00007506,-0.00002289,0.0
 0005601,-0.00002987,-0.00005153,0.00005720,0.00003068,0.00003185,-0.00
 003729,0.00006418,-0.00006954,0.00001780,-0.00004131,0.00003431,-0.000
 03184,0.00000707,0.00000240,-0.00000133,0.00001797,0.00000251,0.000030
 49,0.00001666,-0.00006601,-0.00004098,0.00001049,0.00002103,0.00002410
 ,-0.00000173,0.00001261,0.00001222,-0.00001796,-0.00002109,0.00004559,
 -0.00001419,-0.00000774,-0.00000772,-0.00002079,0.00006871,0.00004540,
 -0.00000653,0.00002588,0.00004696,-0.00001807,0.00001886,0.00000034,0.
 00001583,-0.00001256,0.00000985,0.00004300,-0.00001653,-0.00006036,0.0
 0002024,-0.00000907,0.00001409,0.00003621,0.00001216,0.00002461,0.0000
 0088,0.00001999,-0.00008222,-0.00000006,-0.00003997,-0.00003224,0.0000
 0074,-0.00000411,0.00000977,0.00000044,-0.00004176,0.00004432,-0.00000
 189,-0.00000258,-0.00000689,0.00005719,0.00004022,-0.00003993,-0.00000
 030,-0.00000226,-0.00000011,-0.00003016,0.00002656,0.00000562,-0.00003
 366,-0.00000956,-0.00003191,-0.00000386,0.00000978,0.00002454,0.000002
 25,0.00001129,-0.00000327,0.00000597,-0.00000332,-0.00004685,-0.000015
 13,0.00002026,0.00000085,-0.00000759,0.00001219,0.00000636,-0.00002820
 ,-0.00005450,0.00001810,-0.00002977,0.00002620,-0.00001429,-0.00003515
 ,0.00001211,-0.00005936,0.00002848,0.00000466,-0.00000279,-0.00000848,
 0.00000841,0.00001292,-0.00002050,-0.00001128,0.00000923,0.00000400,-0
 .00000213,-0.00000491,-0.00001326,0.00000748,-0.00001228,0.00004460,0.
 00002320,-0.00001879,-0.00000494,0.00003144,0.00000088,-0.00000230,0.0
 0000956,-0.00000447,-0.00000588,-0.00001900,-0.00001423,-0.00000237,0.
 00001220,0.00000463\\\@
 The archive entry for this job was punched.


 A ROPE OVER THE TOP OF A FENCE HAS THE SAME LENGTH ON EACH SIDE.
 WEIGHS 1/3 POUND PER FOOT.  ON ONE END HANGS A MONKEY HOLDING A
 BANANA, AND ON THE OTHER END A WEIGHT EQUAL TO THE WEIGHT
 OF THE MONKEY.  THE BANANA WEIGHS TWO OUNCES PER INCH.
 THE ROPE IS AS LONG AS THE AGE OF THE MONKEY, 
 AND THE WEIGHT OF THE MONKEY (IN OUNCES) IS AS MUCH
 AS THE AGE OF THE MONKEY'S MOTHER.  THE COMBINED AGES OF MONKEY
 AND MOTHER ARE THIRTY YEARS.  HALF THE WEIGHT OF THE MONKEY,
  PLUS THE WEIGHT OF THE BANANA, IS ONE FOURTH AS MUCH AS THE WEIGHT
 OF THE WEIGHT AND THE ROPE.
 THE MONKEY'S MOTHER IS HALF AS OLD AS THE MONKEY WILL BE
 WHEN IT IS 3 TIMES AS OLD AS ITS MOTHER WAS WHEN
 SHE WAS HALF AS OLD AS THE MONKEY WILL BE WHEN IT IS
 AS OLD AS ITS MOTHER WILL BE WHEN SHE IS 4 TIMES AS
 OLD AS THE MONKEY WAS WHEN IT WAS TWICE AS OLD AS 
 ITS MOTHER WAS WHEN SHE WAS ONE THIRD AS OLD AS THE
 MONKEY WAS WHEN IT WAS AS OLD AS ITS MOTHER WAS WHEN 
 SHE WAS 3 TIMES AS OLD AS THE MONKEY WAS WHEN IT WAS AS OLD AS ITS
 MOTHER WAS WHEN SHE WAS 3 TIMES AS OLD AS THE MONKEY 
 WAS WHEN IT WAS ONE FOURTH WAS OLD AS IT IS NOW.

 HOW LONG IS THE BANANA?
 Job cpu time:       5 days  2 hours 43 minutes 35.7 seconds.
 Elapsed time:       0 days  4 hours  8 minutes  0.3 seconds.
 File lengths (MBytes):  RWF=  15364 Int=      0 D2E=      0 Chk=    112 Scr=      1
 Normal termination of Gaussian 16 at Fri Aug 29 02:57:19 2025.
