 Entering Gaussian System, Link 0=g16
 Input=C8.gau
 Output=C8.log
 Initial command:
 /apps/gaussian/g16c01/g16/l1.exe "/jobfs/147953143.gadi-pbs/Gau-1942014.inp" -scrdir="/jobfs/147953143.gadi-pbs/"
 Default is to use a total of  20 processors:
                               20 via shared-memory
                                1 via Linda
 Entering Link 1 = /apps/gaussian/g16c01/g16/l1.exe PID=   1942015.
  
 Copyright (c) 1988-2019, Gaussian, Inc.  All Rights Reserved.
  
 This is part of the Gaussian(R) 16 program.  It is based on
 the Gaussian(R) 09 system (copyright 2009, Gaussian, Inc.),
 the Gaussian(R) 03 system (copyright 2003, Gaussian, Inc.),
 the Gaussian(R) 98 system (copyright 1998, Gaussian, Inc.),
 the Gaussian(R) 94 system (copyright 1995, Gaussian, Inc.),
 the Gaussian 92(TM) system (copyright 1992, Gaussian, Inc.),
 the Gaussian 90(TM) system (copyright 1990, Gaussian, Inc.),
 the Gaussian 88(TM) system (copyright 1988, Gaussian, Inc.),
 the Gaussian 86(TM) system (copyright 1986, Carnegie Mellon
 University), and the Gaussian 82(TM) system (copyright 1983,
 Carnegie Mellon University). Gaussian is a federally registered
 trademark of Gaussian, Inc.
  
 This software contains proprietary and confidential information,
 including trade secrets, belonging to Gaussian, Inc.
  
 This software is provided under written license and may be
 used, copied, transmitted, or stored only in accord with that
 written license.
  
 The following legend is applicable only to US Government
 contracts under FAR:
  
                    RESTRICTED RIGHTS LEGEND
  
 Use, reproduction and disclosure by the US Government is
 subject to restrictions as set forth in subparagraphs (a)
 and (c) of the Commercial Computer Software - Restricted
 Rights clause in FAR 52.227-19.
  
 Gaussian, Inc.
 340 Quinnipiac St., Bldg. 40, Wallingford CT 06492
  
  
 ---------------------------------------------------------------
 Warning -- This program may not be used in any manner that
 competes with the business of Gaussian, Inc. or will provide
 assistance to any competitor of Gaussian, Inc.  The licensee
 of this program is prohibited from giving any competitor of
 Gaussian, Inc. access to this program.  By using this program,
 the user acknowledges that Gaussian, Inc. is engaged in the
 business of creating and licensing software in the field of
 computational chemistry and represents and warrants to the
 licensee that it is not a competitor of Gaussian, Inc. and that
 it will not use this program in any manner prohibited above.
 ---------------------------------------------------------------
  

 Cite this work as:
 Gaussian 16, Revision C.01,
 M. J. Frisch, G. W. Trucks, H. B. Schlegel, G. E. Scuseria, 
 M. A. Robb, J. R. Cheeseman, G. Scalmani, V. Barone, 
 G. A. Petersson, H. Nakatsuji, X. Li, M. Caricato, A. V. Marenich, 
 J. Bloino, B. G. Janesko, R. Gomperts, B. Mennucci, H. P. Hratchian, 
 J. V. Ortiz, A. F. Izmaylov, J. L. Sonnenberg, D. Williams-Young, 
 F. Ding, F. Lipparini, F. Egidi, J. Goings, B. Peng, A. Petrone, 
 T. Henderson, D. Ranasinghe, V. G. Zakrzewski, J. Gao, N. Rega, 
 G. Zheng, W. Liang, M. Hada, M. Ehara, K. Toyota, R. Fukuda, 
 J. Hasegawa, M. Ishida, T. Nakajima, Y. Honda, O. Kitao, H. Nakai, 
 T. Vreven, K. Throssell, J. A. Montgomery, Jr., J. E. Peralta, 
 F. Ogliaro, M. J. Bearpark, J. J. Heyd, E. N. Brothers, K. N. Kudin, 
 V. N. Staroverov, T. A. Keith, R. Kobayashi, J. Normand, 
 K. Raghavachari, A. P. Rendell, J. C. Burant, S. S. Iyengar, 
 J. Tomasi, M. Cossi, J. M. Millam, M. Klene, C. Adamo, R. Cammi, 
 J. W. Ochterski, R. L. Martin, K. Morokuma, O. Farkas, 
 J. B. Foresman, and D. J. Fox, Gaussian, Inc., Wallingford CT, 2019.
 
 ******************************************
 Gaussian 16:  ES64L-G16RevC.01  3-Jul-2019
                26-Aug-2025 
 ******************************************
 %chk=C8.chk
 Default route: Maxdisk=0MB
 ----------------------------------------------------------------------
 # opt(maxcycles=500,restart) freq scf(maxcycle=500) Int(SuperFine) uwb
 97xd/Def2SVPP scrf=(smd,solvent=Acetonitrile)
 ----------------------------------------------------------------------
 99/5=4/99;
 Restoring state from the checkpoint file "C8.chk".
 ONIOM results not found on unit 2.
 Title:  OPT + Freq
 Route:  # opt(maxcycles=500) freq scf(maxcycle=500) Int(SuperFine) uwb97xd/Def2S
 VPP scrf=(smd,solvent=Acetonitrile) Guess(Read)


 ... A MOLECULAR SYSTEM ... (PASSES) ... FROM ONE STATE OF EQUILIBRIUM 
 TO ANOTHER ... BY MEANS OF ALL POSSIBLE INTERMEDIATE PATHS, 
 BUT THE PATH MOST ECONOMICAL OF ENERGY WILL BE THE MORE OFTEN TRAVELED.

                      -- HENRY EYRING, 1945
 Job cpu time:       0 days  0 hours  0 minutes 13.8 seconds.
 Elapsed time:       0 days  0 hours  0 minutes  0.9 seconds.
 File lengths (MBytes):  RWF=     76 Int=      0 D2E=      0 Chk=     98 Scr=      1
 Normal termination of Gaussian 16 at Tue Aug 26 17:50:55 2025.
 Link1:  Proceeding to internal job step number  2.
 ---------------------------------------------------------------------
 #N Geom=AllCheck Guess=TCheck SCRF=Check GenChk UwB97XD/def2SVPP Freq
 ---------------------------------------------------------------------
 1/6=500,10=4,29=7,30=1,38=1,40=1/1,3;
 2/12=2,40=1/2;
 3/5=43,7=202,11=2,14=-4,25=1,30=1,70=2,71=2,74=-58,75=-7,116=2,140=1/1,2,3;
 4/5=101/1;
 5/5=2,7=500,38=6,98=1/2;
 8/6=4,10=90,11=11/1;
 11/6=1,8=1,9=11,15=111,16=1/1,2,10;
 10/6=1/2;
 6/7=2,8=2,9=2,10=2,28=1/1;
 7/8=1,10=1,25=1/1,2,3,16;
 1/6=500,10=4,30=1/3;
 99//99;
 Structure from the checkpoint file:  "C8.chk"
 ----------
 OPT + Freq
 ----------
 Charge =  2 Multiplicity = 2
 Redundant internal coordinates found in file.  (old form).
 Ir,0,-0.3747625476,-0.0000254987,0.0000521108
 Cl,0,-4.677657427,-4.8425946533,0.6009854512
 Cl,0,-4.6774442226,4.8427106245,-0.6011101395
 Cl,0,-4.0258210353,-3.7579944059,-2.311552735
 Cl,0,-4.0257466678,3.7581405846,2.3114697004
 N,0,-0.4498753605,-0.3346294378,2.0577630515
 N,0,1.3947818018,1.3311321778,0.0254887719
 N,0,-0.449778051,0.334563097,-2.0576637102
 N,0,1.3948015623,-1.3311402873,-0.0253416091
 C,0,0.2699042919,-0.3427296237,-2.9591591293
 H,0,0.9091280733,-1.1408855227,-2.5741892328
 C,0,0.2697968635,0.3426260432,2.9592939483
 H,0,0.9090653873,1.1407622712,2.5743576841
 C,0,0.2145759916,-0.0652656323,-4.3232626716
 C,0,2.4446498919,3.4776478055,0.0266528567
 H,0,2.2949214749,4.5570537447,0.0417552857
 C,0,2.4447065765,-3.4776382042,-0.0264800629
 H,0,2.2949945124,-4.5570478236,-0.0414895592
 C,0,3.7707927627,1.5022308019,-0.0185373402
 H,0,4.7377341615,1.0002663664,-0.0485541018
 C,0,-3.5452853281,3.5567091577,-0.3727439455
 C,0,-2.9194138963,-3.0041317114,1.489031209
 H,0,-3.1663311674,-3.3978007483,2.4765554288
 C,0,-2.0008274109,1.9708918722,-1.3264735396
 C,0,-3.5454349183,-3.5566394489,0.3726813479
 C,0,2.608515255,0.742503297,0.0007725468
 C,0,-0.6365645301,-0.971179236,4.724102407
 H,0,-0.715478496,-1.23233358,5.7833211535
 C,0,-2.9192496137,3.0041546498,-1.4890617157
 H,0,-3.166114841,3.3978183724,-2.476601284
 C,0,-2.0009437452,-1.9709040425,1.326493652
 C,0,-1.7121700513,-1.4645745336,0.029749475
 C,0,0.2144109019,0.0651437275,4.3233918899
 C,0,-0.6363536172,0.9710779511,-4.7240187481
 H,0,-0.7152238936,1.2322172393,-5.7832444085
 C,0,3.7175444995,-2.9033283838,0.0041013756
 C,0,-1.2798866407,-1.3335505407,2.4383346735
 C,0,3.7174939814,2.9033619255,-0.0041249722
 C,0,-2.3453450093,2.0394264912,1.0831945239
 H,0,-2.1374565204,1.6799459837,2.0930213811
 C,0,-1.2797468654,1.3335023224,-2.4382791404
 C,0,-3.2551840009,-3.0748098999,-0.918059049
 C,0,-1.384118016,-1.6713363923,3.7861944546
 H,0,-2.0450528926,-2.4797632322,4.1022699466
 C,0,-2.345378693,-2.0393845203,-1.0831897882
 H,0,-2.1374422717,-1.6798941343,-2.0930030296
 C,0,1.3197899423,2.6647606351,0.0377817245
 H,0,0.3203698964,3.1036698866,0.0630344842
 C,0,3.7708201923,-1.5021955677,0.0184290554
 H,0,4.7377562049,-1.0002131097,0.0483101073
 C,0,1.3198313866,-2.6647715243,-0.0375362492
 H,0,0.3204178875,-3.1037023246,-0.062643101
 C,0,-3.2550979079,3.074891776,0.9180139478
 C,0,-1.3839192968,1.6712720208,-3.7861478346
 H,0,-2.0448197872,2.4797137781,-4.1022580274
 C,0,5.0097970114,3.7193703003,-0.0212936969
 C,0,5.7929058093,3.3798398111,-1.3036139427
 H,0,6.0667888651,2.311668839,-1.3502421748
 H,0,6.727180305,3.9675474278,-1.3349956109
 H,0,5.2026425677,3.6251310124,-2.2042603871
 C,0,1.0343005523,-0.8464759375,-5.3076954611
 H,0,0.3817849934,-1.3418934239,-6.0472215174
 H,0,1.6393264421,-1.617070282,-4.8046846132
 H,0,1.7131422313,-0.1764133786,-5.8629953766
 C,0,5.8485407489,3.3464297573,1.2158781372
 H,0,5.29616154,3.5611625811,2.1478653709
 H,0,6.7805487502,3.9384427804,1.225390521
 H,0,6.1294466204,2.2791583413,1.2186670747
 C,0,2.608527655,-0.7424887166,-0.000780402
 C,0,1.0341131722,0.8463217907,5.3078686667
 H,0,0.3815634867,1.3418972011,6.0472601027
 H,0,1.6393140973,1.6167895961,4.8048746655
 H,0,1.7127818635,0.1762133828,5.8633230786
 C,0,4.7348388304,5.2275303288,0.0054178422
 H,0,4.1518066451,5.5544144872,-0.8731339896
 H,0,5.6935565321,5.773818347,-0.008103894
 H,0,4.1912412442,5.5296215951,0.9175765329
 C,0,5.0098635439,-3.7193137776,0.021159214
 H,0,4.1911983109,-5.5296531007,-0.9174448935
 C,0,5.8484291699,-3.346460508,-1.2161596562
 H,0,5.2959228352,-3.5612745802,-2.1480528139
 H,0,6.7804438054,-3.9384617975,-1.2257551367
 H,0,6.1293203371,-2.2791855338,-1.2190719496
 C,0,4.7349256634,-5.2274803237,-0.005390533
 H,0,4.1520290964,-5.5543041754,0.873273702
 H,0,5.6936543117,-5.7737515385,0.008033061
 C,0,5.7931464292,-3.3796661679,1.3033424455
 H,0,6.067024576,-2.3114883564,1.3498431588
 H,0,6.7274320804,-3.9673602885,1.3346431732
 H,0,5.2030117511,-3.6248890777,2.2040917428
 C,0,-1.7121286504,1.4645678016,-0.029711961
 Recover connectivity data from disk.

 GradGradGradGradGradGradGradGradGradGradGradGradGradGradGradGradGradGrad
 Berny optimization.
 Initialization pass.
                           ----------------------------
                           !    Initial Parameters    !
                           ! (Angstroms and Degrees)  !
 --------------------------                            --------------------------
 ! Name  Definition              Value          Derivative Info.                !
 --------------------------------------------------------------------------------
 ! R1    R(1,6)                  2.0861         calculate D2E/DX2 analytically  !
 ! R2    R(1,7)                  2.2145         calculate D2E/DX2 analytically  !
 ! R3    R(1,8)                  2.0861         calculate D2E/DX2 analytically  !
 ! R4    R(1,9)                  2.2145         calculate D2E/DX2 analytically  !
 ! R5    R(1,32)                 1.9835         calculate D2E/DX2 analytically  !
 ! R6    R(1,91)                 1.9835         calculate D2E/DX2 analytically  !
 ! R7    R(2,25)                 1.7285         calculate D2E/DX2 analytically  !
 ! R8    R(3,21)                 1.7285         calculate D2E/DX2 analytically  !
 ! R9    R(4,42)                 1.7328         calculate D2E/DX2 analytically  !
 ! R10   R(5,53)                 1.7328         calculate D2E/DX2 analytically  !
 ! R11   R(6,12)                 1.3377         calculate D2E/DX2 analytically  !
 ! R12   R(6,37)                 1.3534         calculate D2E/DX2 analytically  !
 ! R13   R(7,26)                 1.3492         calculate D2E/DX2 analytically  !
 ! R14   R(7,47)                 1.3358         calculate D2E/DX2 analytically  !
 ! R15   R(8,10)                 1.3377         calculate D2E/DX2 analytically  !
 ! R16   R(8,41)                 1.3534         calculate D2E/DX2 analytically  !
 ! R17   R(9,51)                 1.3358         calculate D2E/DX2 analytically  !
 ! R18   R(9,69)                 1.3492         calculate D2E/DX2 analytically  !
 ! R19   R(10,11)                1.0926         calculate D2E/DX2 analytically  !
 ! R20   R(10,14)                1.3931         calculate D2E/DX2 analytically  !
 ! R21   R(12,13)                1.0926         calculate D2E/DX2 analytically  !
 ! R22   R(12,33)                1.3931         calculate D2E/DX2 analytically  !
 ! R23   R(14,34)                1.3995         calculate D2E/DX2 analytically  !
 ! R24   R(14,61)                1.5004         calculate D2E/DX2 analytically  !
 ! R25   R(15,16)                1.0898         calculate D2E/DX2 analytically  !
 ! R26   R(15,38)                1.3967         calculate D2E/DX2 analytically  !
 ! R27   R(15,47)                1.3879         calculate D2E/DX2 analytically  !
 ! R28   R(17,18)                1.0898         calculate D2E/DX2 analytically  !
 ! R29   R(17,36)                1.3967         calculate D2E/DX2 analytically  !
 ! R30   R(17,51)                1.3879         calculate D2E/DX2 analytically  !
 ! R31   R(19,20)                1.0899         calculate D2E/DX2 analytically  !
 ! R32   R(19,26)                1.3887         calculate D2E/DX2 analytically  !
 ! R33   R(19,38)                1.4022         calculate D2E/DX2 analytically  !
 ! R34   R(21,29)                1.3941         calculate D2E/DX2 analytically  !
 ! R35   R(21,53)                1.408          calculate D2E/DX2 analytically  !
 ! R36   R(22,23)                1.0914         calculate D2E/DX2 analytically  !
 ! R37   R(22,25)                1.3941         calculate D2E/DX2 analytically  !
 ! R38   R(22,31)                1.392          calculate D2E/DX2 analytically  !
 ! R39   R(24,29)                1.392          calculate D2E/DX2 analytically  !
 ! R40   R(24,41)                1.4705         calculate D2E/DX2 analytically  !
 ! R41   R(24,91)                1.4217         calculate D2E/DX2 analytically  !
 ! R42   R(25,42)                1.408          calculate D2E/DX2 analytically  !
 ! R43   R(26,69)                1.485          calculate D2E/DX2 analytically  !
 ! R44   R(27,28)                1.0938         calculate D2E/DX2 analytically  !
 ! R45   R(27,33)                1.3995         calculate D2E/DX2 analytically  !
 ! R46   R(27,43)                1.3888         calculate D2E/DX2 analytically  !
 ! R47   R(29,30)                1.0914         calculate D2E/DX2 analytically  !
 ! R48   R(31,32)                1.4217         calculate D2E/DX2 analytically  !
 ! R49   R(31,37)                1.4705         calculate D2E/DX2 analytically  !
 ! R50   R(32,45)                1.4036         calculate D2E/DX2 analytically  !
 ! R51   R(33,70)                1.5004         calculate D2E/DX2 analytically  !
 ! R52   R(34,35)                1.0938         calculate D2E/DX2 analytically  !
 ! R53   R(34,54)                1.3888         calculate D2E/DX2 analytically  !
 ! R54   R(36,49)                1.4022         calculate D2E/DX2 analytically  !
 ! R55   R(36,78)                1.5285         calculate D2E/DX2 analytically  !
 ! R56   R(37,43)                1.3934         calculate D2E/DX2 analytically  !
 ! R57   R(38,56)                1.5285         calculate D2E/DX2 analytically  !
 ! R58   R(39,40)                1.0919         calculate D2E/DX2 analytically  !
 ! R59   R(39,53)                1.3882         calculate D2E/DX2 analytically  !
 ! R60   R(39,91)                1.4036         calculate D2E/DX2 analytically  !
 ! R61   R(41,54)                1.3934         calculate D2E/DX2 analytically  !
 ! R62   R(42,45)                1.3882         calculate D2E/DX2 analytically  !
 ! R63   R(43,44)                1.091          calculate D2E/DX2 analytically  !
 ! R64   R(45,46)                1.0919         calculate D2E/DX2 analytically  !
 ! R65   R(47,48)                1.0918         calculate D2E/DX2 analytically  !
 ! R66   R(49,50)                1.0899         calculate D2E/DX2 analytically  !
 ! R67   R(49,69)                1.3887         calculate D2E/DX2 analytically  !
 ! R68   R(51,52)                1.0918         calculate D2E/DX2 analytically  !
 ! R69   R(54,55)                1.091          calculate D2E/DX2 analytically  !
 ! R70   R(56,57)                1.5404         calculate D2E/DX2 analytically  !
 ! R71   R(56,65)                1.5405         calculate D2E/DX2 analytically  !
 ! R72   R(56,74)                1.5333         calculate D2E/DX2 analytically  !
 ! R73   R(57,58)                1.1037         calculate D2E/DX2 analytically  !
 ! R74   R(57,59)                1.1042         calculate D2E/DX2 analytically  !
 ! R75   R(57,60)                1.1044         calculate D2E/DX2 analytically  !
 ! R76   R(61,62)                1.1037         calculate D2E/DX2 analytically  !
 ! R77   R(61,63)                1.1013         calculate D2E/DX2 analytically  !
 ! R78   R(61,64)                1.1037         calculate D2E/DX2 analytically  !
 ! R79   R(65,66)                1.1045         calculate D2E/DX2 analytically  !
 ! R80   R(65,67)                1.1042         calculate D2E/DX2 analytically  !
 ! R81   R(65,68)                1.1036         calculate D2E/DX2 analytically  !
 ! R82   R(70,71)                1.1037         calculate D2E/DX2 analytically  !
 ! R83   R(70,72)                1.1013         calculate D2E/DX2 analytically  !
 ! R84   R(70,73)                1.1037         calculate D2E/DX2 analytically  !
 ! R85   R(74,75)                1.1039         calculate D2E/DX2 analytically  !
 ! R86   R(74,76)                1.1035         calculate D2E/DX2 analytically  !
 ! R87   R(74,77)                1.104          calculate D2E/DX2 analytically  !
 ! R88   R(78,80)                1.5405         calculate D2E/DX2 analytically  !
 ! R89   R(78,84)                1.5333         calculate D2E/DX2 analytically  !
 ! R90   R(78,87)                1.5404         calculate D2E/DX2 analytically  !
 ! R91   R(79,84)                1.104          calculate D2E/DX2 analytically  !
 ! R92   R(80,81)                1.1045         calculate D2E/DX2 analytically  !
 ! R93   R(80,82)                1.1042         calculate D2E/DX2 analytically  !
 ! R94   R(80,83)                1.1036         calculate D2E/DX2 analytically  !
 ! R95   R(84,85)                1.1039         calculate D2E/DX2 analytically  !
 ! R96   R(84,86)                1.1035         calculate D2E/DX2 analytically  !
 ! R97   R(87,88)                1.1037         calculate D2E/DX2 analytically  !
 ! R98   R(87,89)                1.1042         calculate D2E/DX2 analytically  !
 ! R99   R(87,90)                1.1044         calculate D2E/DX2 analytically  !
 ! A1    A(6,1,7)               96.5378         calculate D2E/DX2 analytically  !
 ! A2    A(6,1,9)               86.7708         calculate D2E/DX2 analytically  !
 ! A3    A(6,1,32)              80.9396         calculate D2E/DX2 analytically  !
 ! A4    A(6,1,91)              96.2552         calculate D2E/DX2 analytically  !
 ! A5    A(7,1,8)               86.7698         calculate D2E/DX2 analytically  !
 ! A6    A(7,1,9)               73.9142         calculate D2E/DX2 analytically  !
 ! A7    A(7,1,91)              95.4564         calculate D2E/DX2 analytically  !
 ! A8    A(8,1,9)               96.5364         calculate D2E/DX2 analytically  !
 ! A9    A(8,1,32)              96.2546         calculate D2E/DX2 analytically  !
 ! A10   A(8,1,91)              80.9397         calculate D2E/DX2 analytically  !
 ! A11   A(9,1,32)              95.4593         calculate D2E/DX2 analytically  !
 ! A12   A(32,1,91)             95.2096         calculate D2E/DX2 analytically  !
 ! A13   A(1,6,12)             124.3473         calculate D2E/DX2 analytically  !
 ! A14   A(1,6,37)             114.699          calculate D2E/DX2 analytically  !
 ! A15   A(12,6,37)            120.9395         calculate D2E/DX2 analytically  !
 ! A16   A(1,7,26)             117.1547         calculate D2E/DX2 analytically  !
 ! A17   A(1,7,47)             123.7374         calculate D2E/DX2 analytically  !
 ! A18   A(26,7,47)            119.095          calculate D2E/DX2 analytically  !
 ! A19   A(1,8,10)             124.3472         calculate D2E/DX2 analytically  !
 ! A20   A(1,8,41)             114.699          calculate D2E/DX2 analytically  !
 ! A21   A(10,8,41)            120.9396         calculate D2E/DX2 analytically  !
 ! A22   A(1,9,51)             123.7371         calculate D2E/DX2 analytically  !
 ! A23   A(1,9,69)             117.1551         calculate D2E/DX2 analytically  !
 ! A24   A(51,9,69)            119.095          calculate D2E/DX2 analytically  !
 ! A25   A(8,10,11)            116.562          calculate D2E/DX2 analytically  !
 ! A26   A(8,10,14)            122.5256         calculate D2E/DX2 analytically  !
 ! A27   A(11,10,14)           120.9112         calculate D2E/DX2 analytically  !
 ! A28   A(6,12,13)            116.562          calculate D2E/DX2 analytically  !
 ! A29   A(6,12,33)            122.5256         calculate D2E/DX2 analytically  !
 ! A30   A(13,12,33)           120.9112         calculate D2E/DX2 analytically  !
 ! A31   A(10,14,34)           116.8727         calculate D2E/DX2 analytically  !
 ! A32   A(10,14,61)           121.1331         calculate D2E/DX2 analytically  !
 ! A33   A(34,14,61)           121.9942         calculate D2E/DX2 analytically  !
 ! A34   A(16,15,38)           122.1899         calculate D2E/DX2 analytically  !
 ! A35   A(16,15,47)           117.9456         calculate D2E/DX2 analytically  !
 ! A36   A(38,15,47)           119.8645         calculate D2E/DX2 analytically  !
 ! A37   A(18,17,36)           122.1899         calculate D2E/DX2 analytically  !
 ! A38   A(18,17,51)           117.9455         calculate D2E/DX2 analytically  !
 ! A39   A(36,17,51)           119.8646         calculate D2E/DX2 analytically  !
 ! A40   A(20,19,26)           119.404          calculate D2E/DX2 analytically  !
 ! A41   A(20,19,38)           119.6181         calculate D2E/DX2 analytically  !
 ! A42   A(26,19,38)           120.9776         calculate D2E/DX2 analytically  !
 ! A43   A(3,21,29)            118.897          calculate D2E/DX2 analytically  !
 ! A44   A(3,21,53)            120.7112         calculate D2E/DX2 analytically  !
 ! A45   A(29,21,53)           120.3915         calculate D2E/DX2 analytically  !
 ! A46   A(23,22,25)           118.6869         calculate D2E/DX2 analytically  !
 ! A47   A(23,22,31)           121.5121         calculate D2E/DX2 analytically  !
 ! A48   A(25,22,31)           119.801          calculate D2E/DX2 analytically  !
 ! A49   A(29,24,41)           123.8478         calculate D2E/DX2 analytically  !
 ! A50   A(29,24,91)           120.3233         calculate D2E/DX2 analytically  !
 ! A51   A(41,24,91)           115.8286         calculate D2E/DX2 analytically  !
 ! A52   A(2,25,22)            118.897          calculate D2E/DX2 analytically  !
 ! A53   A(2,25,42)            120.7112         calculate D2E/DX2 analytically  !
 ! A54   A(22,25,42)           120.3916         calculate D2E/DX2 analytically  !
 ! A55   A(7,26,19)            120.965          calculate D2E/DX2 analytically  !
 ! A56   A(7,26,69)            115.8692         calculate D2E/DX2 analytically  !
 ! A57   A(19,26,69)           123.1657         calculate D2E/DX2 analytically  !
 ! A58   A(28,27,33)           119.8634         calculate D2E/DX2 analytically  !
 ! A59   A(28,27,43)           119.656          calculate D2E/DX2 analytically  !
 ! A60   A(33,27,43)           120.4805         calculate D2E/DX2 analytically  !
 ! A61   A(21,29,24)           119.801          calculate D2E/DX2 analytically  !
 ! A62   A(21,29,30)           118.6869         calculate D2E/DX2 analytically  !
 ! A63   A(24,29,30)           121.5121         calculate D2E/DX2 analytically  !
 ! A64   A(22,31,32)           120.3234         calculate D2E/DX2 analytically  !
 ! A65   A(22,31,37)           123.8479         calculate D2E/DX2 analytically  !
 ! A66   A(32,31,37)           115.8284         calculate D2E/DX2 analytically  !
 ! A67   A(1,32,31)            114.4287         calculate D2E/DX2 analytically  !
 ! A68   A(1,32,45)            126.4908         calculate D2E/DX2 analytically  !
 ! A69   A(31,32,45)           119.0614         calculate D2E/DX2 analytically  !
 ! A70   A(12,33,27)           116.8727         calculate D2E/DX2 analytically  !
 ! A71   A(12,33,70)           121.1331         calculate D2E/DX2 analytically  !
 ! A72   A(27,33,70)           121.9941         calculate D2E/DX2 analytically  !
 ! A73   A(14,34,35)           119.8634         calculate D2E/DX2 analytically  !
 ! A74   A(14,34,54)           120.4805         calculate D2E/DX2 analytically  !
 ! A75   A(35,34,54)           119.656          calculate D2E/DX2 analytically  !
 ! A76   A(17,36,49)           116.4686         calculate D2E/DX2 analytically  !
 ! A77   A(17,36,78)           123.4515         calculate D2E/DX2 analytically  !
 ! A78   A(49,36,78)           120.0799         calculate D2E/DX2 analytically  !
 ! A79   A(6,37,31)            114.0809         calculate D2E/DX2 analytically  !
 ! A80   A(6,37,43)            119.7887         calculate D2E/DX2 analytically  !
 ! A81   A(31,37,43)           126.1301         calculate D2E/DX2 analytically  !
 ! A82   A(15,38,19)           116.4686         calculate D2E/DX2 analytically  !
 ! A83   A(15,38,56)           123.4515         calculate D2E/DX2 analytically  !
 ! A84   A(19,38,56)           120.0799         calculate D2E/DX2 analytically  !
 ! A85   A(40,39,53)           118.7112         calculate D2E/DX2 analytically  !
 ! A86   A(40,39,91)           120.8366         calculate D2E/DX2 analytically  !
 ! A87   A(53,39,91)           120.4515         calculate D2E/DX2 analytically  !
 ! A88   A(8,41,24)            114.081          calculate D2E/DX2 analytically  !
 ! A89   A(8,41,54)            119.7887         calculate D2E/DX2 analytically  !
 ! A90   A(24,41,54)           126.1301         calculate D2E/DX2 analytically  !
 ! A91   A(4,42,25)            120.7059         calculate D2E/DX2 analytically  !
 ! A92   A(4,42,45)            119.3337         calculate D2E/DX2 analytically  !
 ! A93   A(25,42,45)           119.9602         calculate D2E/DX2 analytically  !
 ! A94   A(27,43,37)           119.3915         calculate D2E/DX2 analytically  !
 ! A95   A(27,43,44)           120.2656         calculate D2E/DX2 analytically  !
 ! A96   A(37,43,44)           120.3428         calculate D2E/DX2 analytically  !
 ! A97   A(32,45,42)           120.4516         calculate D2E/DX2 analytically  !
 ! A98   A(32,45,46)           120.8366         calculate D2E/DX2 analytically  !
 ! A99   A(42,45,46)           118.7112         calculate D2E/DX2 analytically  !
 ! A100  A(7,47,15)            122.6278         calculate D2E/DX2 analytically  !
 ! A101  A(7,47,48)            116.9324         calculate D2E/DX2 analytically  !
 ! A102  A(15,47,48)           120.4389         calculate D2E/DX2 analytically  !
 ! A103  A(36,49,50)           119.618          calculate D2E/DX2 analytically  !
 ! A104  A(36,49,69)           120.9777         calculate D2E/DX2 analytically  !
 ! A105  A(50,49,69)           119.404          calculate D2E/DX2 analytically  !
 ! A106  A(9,51,17)            122.6278         calculate D2E/DX2 analytically  !
 ! A107  A(9,51,52)            116.9326         calculate D2E/DX2 analytically  !
 ! A108  A(17,51,52)           120.4387         calculate D2E/DX2 analytically  !
 ! A109  A(5,53,21)            120.7058         calculate D2E/DX2 analytically  !
 ! A110  A(5,53,39)            119.3337         calculate D2E/DX2 analytically  !
 ! A111  A(21,53,39)           119.9603         calculate D2E/DX2 analytically  !
 ! A112  A(34,54,41)           119.3915         calculate D2E/DX2 analytically  !
 ! A113  A(34,54,55)           120.2656         calculate D2E/DX2 analytically  !
 ! A114  A(41,54,55)           120.3427         calculate D2E/DX2 analytically  !
 ! A115  A(38,56,57)           108.7538         calculate D2E/DX2 analytically  !
 ! A116  A(38,56,65)           108.7881         calculate D2E/DX2 analytically  !
 ! A117  A(38,56,74)           111.9205         calculate D2E/DX2 analytically  !
 ! A118  A(57,56,65)           109.7785         calculate D2E/DX2 analytically  !
 ! A119  A(57,56,74)           108.8128         calculate D2E/DX2 analytically  !
 ! A120  A(65,56,74)           108.7702         calculate D2E/DX2 analytically  !
 ! A121  A(56,57,58)           112.0019         calculate D2E/DX2 analytically  !
 ! A122  A(56,57,59)           109.6628         calculate D2E/DX2 analytically  !
 ! A123  A(56,57,60)           110.9897         calculate D2E/DX2 analytically  !
 ! A124  A(58,57,59)           107.6949         calculate D2E/DX2 analytically  !
 ! A125  A(58,57,60)           108.2474         calculate D2E/DX2 analytically  !
 ! A126  A(59,57,60)           108.1087         calculate D2E/DX2 analytically  !
 ! A127  A(14,61,62)           110.5076         calculate D2E/DX2 analytically  !
 ! A128  A(14,61,63)           111.3935         calculate D2E/DX2 analytically  !
 ! A129  A(14,61,64)           110.4888         calculate D2E/DX2 analytically  !
 ! A130  A(62,61,63)           108.4666         calculate D2E/DX2 analytically  !
 ! A131  A(62,61,64)           107.3992         calculate D2E/DX2 analytically  !
 ! A132  A(63,61,64)           108.4632         calculate D2E/DX2 analytically  !
 ! A133  A(56,65,66)           110.9965         calculate D2E/DX2 analytically  !
 ! A134  A(56,65,67)           109.675          calculate D2E/DX2 analytically  !
 ! A135  A(56,65,68)           112.0074         calculate D2E/DX2 analytically  !
 ! A136  A(66,65,67)           108.0978         calculate D2E/DX2 analytically  !
 ! A137  A(66,65,68)           108.2514         calculate D2E/DX2 analytically  !
 ! A138  A(67,65,68)           107.6759         calculate D2E/DX2 analytically  !
 ! A139  A(9,69,26)            115.8693         calculate D2E/DX2 analytically  !
 ! A140  A(9,69,49)            120.9649         calculate D2E/DX2 analytically  !
 ! A141  A(26,69,49)           123.1656         calculate D2E/DX2 analytically  !
 ! A142  A(33,70,71)           110.5074         calculate D2E/DX2 analytically  !
 ! A143  A(33,70,72)           111.3935         calculate D2E/DX2 analytically  !
 ! A144  A(33,70,73)           110.489          calculate D2E/DX2 analytically  !
 ! A145  A(71,70,72)           108.4664         calculate D2E/DX2 analytically  !
 ! A146  A(71,70,73)           107.3991         calculate D2E/DX2 analytically  !
 ! A147  A(72,70,73)           108.4634         calculate D2E/DX2 analytically  !
 ! A148  A(56,74,75)           111.8461         calculate D2E/DX2 analytically  !
 ! A149  A(56,74,76)           109.3251         calculate D2E/DX2 analytically  !
 ! A150  A(56,74,77)           111.83           calculate D2E/DX2 analytically  !
 ! A151  A(75,74,76)           107.6082         calculate D2E/DX2 analytically  !
 ! A152  A(75,74,77)           108.45           calculate D2E/DX2 analytically  !
 ! A153  A(76,74,77)           107.6046         calculate D2E/DX2 analytically  !
 ! A154  A(36,78,80)           108.788          calculate D2E/DX2 analytically  !
 ! A155  A(36,78,84)           111.9204         calculate D2E/DX2 analytically  !
 ! A156  A(36,78,87)           108.7539         calculate D2E/DX2 analytically  !
 ! A157  A(80,78,84)           108.7703         calculate D2E/DX2 analytically  !
 ! A158  A(80,78,87)           109.7785         calculate D2E/DX2 analytically  !
 ! A159  A(84,78,87)           108.8128         calculate D2E/DX2 analytically  !
 ! A160  A(78,80,81)           110.9965         calculate D2E/DX2 analytically  !
 ! A161  A(78,80,82)           109.675          calculate D2E/DX2 analytically  !
 ! A162  A(78,80,83)           112.0073         calculate D2E/DX2 analytically  !
 ! A163  A(81,80,82)           108.0978         calculate D2E/DX2 analytically  !
 ! A164  A(81,80,83)           108.2514         calculate D2E/DX2 analytically  !
 ! A165  A(82,80,83)           107.6759         calculate D2E/DX2 analytically  !
 ! A166  A(78,84,79)           111.8299         calculate D2E/DX2 analytically  !
 ! A167  A(78,84,85)           111.8462         calculate D2E/DX2 analytically  !
 ! A168  A(78,84,86)           109.3251         calculate D2E/DX2 analytically  !
 ! A169  A(79,84,85)           108.4501         calculate D2E/DX2 analytically  !
 ! A170  A(79,84,86)           107.6046         calculate D2E/DX2 analytically  !
 ! A171  A(85,84,86)           107.6082         calculate D2E/DX2 analytically  !
 ! A172  A(78,87,88)           112.002          calculate D2E/DX2 analytically  !
 ! A173  A(78,87,89)           109.6628         calculate D2E/DX2 analytically  !
 ! A174  A(78,87,90)           110.9897         calculate D2E/DX2 analytically  !
 ! A175  A(88,87,89)           107.6949         calculate D2E/DX2 analytically  !
 ! A176  A(88,87,90)           108.2474         calculate D2E/DX2 analytically  !
 ! A177  A(89,87,90)           108.1086         calculate D2E/DX2 analytically  !
 ! A178  A(1,91,24)            114.4284         calculate D2E/DX2 analytically  !
 ! A179  A(1,91,39)            126.4909         calculate D2E/DX2 analytically  !
 ! A180  A(24,91,39)           119.0615         calculate D2E/DX2 analytically  !
 ! A181  L(6,1,8,7,-1)         183.3076         calculate D2E/DX2 analytically  !
 ! A182  L(7,1,32,6,-1)        177.4775         calculate D2E/DX2 analytically  !
 ! A183  L(9,1,91,6,-1)        183.026          calculate D2E/DX2 analytically  !
 ! A184  L(6,1,8,7,-2)         182.4729         calculate D2E/DX2 analytically  !
 ! A185  L(7,1,32,6,-2)        190.5511         calculate D2E/DX2 analytically  !
 ! A186  L(9,1,91,6,-2)        169.6422         calculate D2E/DX2 analytically  !
 ! D1    D(7,1,6,12)            10.6132         calculate D2E/DX2 analytically  !
 ! D2    D(7,1,6,37)          -168.0201         calculate D2E/DX2 analytically  !
 ! D3    D(9,1,6,12)            84.0066         calculate D2E/DX2 analytically  !
 ! D4    D(9,1,6,37)           -94.6268         calculate D2E/DX2 analytically  !
 ! D5    D(32,1,6,12)         -179.9379         calculate D2E/DX2 analytically  !
 ! D6    D(32,1,6,37)            1.4287         calculate D2E/DX2 analytically  !
 ! D7    D(91,1,6,12)          -85.6356         calculate D2E/DX2 analytically  !
 ! D8    D(91,1,6,37)           95.731          calculate D2E/DX2 analytically  !
 ! D9    D(6,1,7,26)            85.3618         calculate D2E/DX2 analytically  !
 ! D10   D(6,1,7,47)           -95.9612         calculate D2E/DX2 analytically  !
 ! D11   D(8,1,7,26)           -97.1111         calculate D2E/DX2 analytically  !
 ! D12   D(8,1,7,47)            81.5659         calculate D2E/DX2 analytically  !
 ! D13   D(9,1,7,26)             0.6439         calculate D2E/DX2 analytically  !
 ! D14   D(9,1,7,47)           179.3209         calculate D2E/DX2 analytically  !
 ! D15   D(91,1,7,26)         -177.6816         calculate D2E/DX2 analytically  !
 ! D16   D(91,1,7,47)            0.9954         calculate D2E/DX2 analytically  !
 ! D17   D(7,1,8,10)            84.01           calculate D2E/DX2 analytically  !
 ! D18   D(7,1,8,41)           -94.6243         calculate D2E/DX2 analytically  !
 ! D19   D(9,1,8,10)            10.6166         calculate D2E/DX2 analytically  !
 ! D20   D(9,1,8,41)          -168.0176         calculate D2E/DX2 analytically  !
 ! D21   D(32,1,8,10)          -85.6349         calculate D2E/DX2 analytically  !
 ! D22   D(32,1,8,41)           95.7309         calculate D2E/DX2 analytically  !
 ! D23   D(91,1,8,10)         -179.9373         calculate D2E/DX2 analytically  !
 ! D24   D(91,1,8,41)            1.4285         calculate D2E/DX2 analytically  !
 ! D25   D(6,1,9,51)            81.5596         calculate D2E/DX2 analytically  !
 ! D26   D(6,1,9,69)           -97.1211         calculate D2E/DX2 analytically  !
 ! D27   D(7,1,9,51)           179.3157         calculate D2E/DX2 analytically  !
 ! D28   D(7,1,9,69)             0.6351         calculate D2E/DX2 analytically  !
 ! D29   D(8,1,9,51)           -95.9669         calculate D2E/DX2 analytically  !
 ! D30   D(8,1,9,69)            85.3524         calculate D2E/DX2 analytically  !
 ! D31   D(32,1,9,51)            0.9892         calculate D2E/DX2 analytically  !
 ! D32   D(32,1,9,69)         -177.6914         calculate D2E/DX2 analytically  !
 ! D33   D(6,1,32,31)           -0.9452         calculate D2E/DX2 analytically  !
 ! D34   D(6,1,32,45)         -179.3259         calculate D2E/DX2 analytically  !
 ! D35   D(8,1,32,31)         -177.895          calculate D2E/DX2 analytically  !
 ! D36   D(8,1,32,45)            3.7244         calculate D2E/DX2 analytically  !
 ! D37   D(9,1,32,31)           84.8947         calculate D2E/DX2 analytically  !
 ! D38   D(9,1,32,45)          -93.486          calculate D2E/DX2 analytically  !
 ! D39   D(91,1,32,31)         -96.4686         calculate D2E/DX2 analytically  !
 ! D40   D(91,1,32,45)          85.1507         calculate D2E/DX2 analytically  !
 ! D41   D(6,1,91,24)         -177.8944         calculate D2E/DX2 analytically  !
 ! D42   D(6,1,91,39)            3.7266         calculate D2E/DX2 analytically  !
 ! D43   D(7,1,91,24)           84.8941         calculate D2E/DX2 analytically  !
 ! D44   D(7,1,91,39)          -93.4849         calculate D2E/DX2 analytically  !
 ! D45   D(8,1,91,24)           -0.9453         calculate D2E/DX2 analytically  !
 ! D46   D(8,1,91,39)         -179.3244         calculate D2E/DX2 analytically  !
 ! D47   D(32,1,91,24)         -96.4681         calculate D2E/DX2 analytically  !
 ! D48   D(32,1,91,39)          85.1529         calculate D2E/DX2 analytically  !
 ! D49   D(1,6,12,13)            2.0146         calculate D2E/DX2 analytically  !
 ! D50   D(1,6,12,33)         -178.3754         calculate D2E/DX2 analytically  !
 ! D51   D(37,6,12,13)        -179.433          calculate D2E/DX2 analytically  !
 ! D52   D(37,6,12,33)           0.177          calculate D2E/DX2 analytically  !
 ! D53   D(1,6,37,31)           -1.5744         calculate D2E/DX2 analytically  !
 ! D54   D(1,6,37,43)          178.2804         calculate D2E/DX2 analytically  !
 ! D55   D(12,6,37,31)         179.7411         calculate D2E/DX2 analytically  !
 ! D56   D(12,6,37,43)          -0.4041         calculate D2E/DX2 analytically  !
 ! D57   D(1,7,26,19)          178.4223         calculate D2E/DX2 analytically  !
 ! D58   D(1,7,26,69)           -1.7208         calculate D2E/DX2 analytically  !
 ! D59   D(47,7,26,19)          -0.3187         calculate D2E/DX2 analytically  !
 ! D60   D(47,7,26,69)         179.5382         calculate D2E/DX2 analytically  !
 ! D61   D(1,7,47,15)         -178.6776         calculate D2E/DX2 analytically  !
 ! D62   D(1,7,47,48)            1.6579         calculate D2E/DX2 analytically  !
 ! D63   D(26,7,47,15)          -0.0247         calculate D2E/DX2 analytically  !
 ! D64   D(26,7,47,48)        -179.6892         calculate D2E/DX2 analytically  !
 ! D65   D(1,8,10,11)            2.0144         calculate D2E/DX2 analytically  !
 ! D66   D(1,8,10,14)         -178.376          calculate D2E/DX2 analytically  !
 ! D67   D(41,8,10,11)        -179.4323         calculate D2E/DX2 analytically  !
 ! D68   D(41,8,10,14)           0.1773         calculate D2E/DX2 analytically  !
 ! D69   D(1,8,41,24)           -1.574          calculate D2E/DX2 analytically  !
 ! D70   D(1,8,41,54)          178.2809         calculate D2E/DX2 analytically  !
 ! D71   D(10,8,41,24)         179.7408         calculate D2E/DX2 analytically  !
 ! D72   D(10,8,41,54)          -0.4044         calculate D2E/DX2 analytically  !
 ! D73   D(1,9,51,17)         -178.6823         calculate D2E/DX2 analytically  !
 ! D74   D(1,9,51,52)            1.653          calculate D2E/DX2 analytically  !
 ! D75   D(69,9,51,17)          -0.0258         calculate D2E/DX2 analytically  !
 ! D76   D(69,9,51,52)        -179.6905         calculate D2E/DX2 analytically  !
 ! D77   D(1,9,69,26)           -1.713          calculate D2E/DX2 analytically  !
 ! D78   D(1,9,69,49)          178.4278         calculate D2E/DX2 analytically  !
 ! D79   D(51,9,69,26)         179.5426         calculate D2E/DX2 analytically  !
 ! D80   D(51,9,69,49)          -0.3166         calculate D2E/DX2 analytically  !
 ! D81   D(8,10,14,34)           0.148          calculate D2E/DX2 analytically  !
 ! D82   D(8,10,14,61)        -179.9091         calculate D2E/DX2 analytically  !
 ! D83   D(11,10,14,34)        179.741          calculate D2E/DX2 analytically  !
 ! D84   D(11,10,14,61)         -0.3161         calculate D2E/DX2 analytically  !
 ! D85   D(6,12,33,27)           0.1481         calculate D2E/DX2 analytically  !
 ! D86   D(6,12,33,70)        -179.9084         calculate D2E/DX2 analytically  !
 ! D87   D(13,12,33,27)        179.7416         calculate D2E/DX2 analytically  !
 ! D88   D(13,12,33,70)         -0.3149         calculate D2E/DX2 analytically  !
 ! D89   D(10,14,34,35)        179.8176         calculate D2E/DX2 analytically  !
 ! D90   D(10,14,34,54)         -0.2424         calculate D2E/DX2 analytically  !
 ! D91   D(61,14,34,35)         -0.1248         calculate D2E/DX2 analytically  !
 ! D92   D(61,14,34,54)        179.8152         calculate D2E/DX2 analytically  !
 ! D93   D(10,14,61,62)        120.6771         calculate D2E/DX2 analytically  !
 ! D94   D(10,14,61,63)          0.0303         calculate D2E/DX2 analytically  !
 ! D95   D(10,14,61,64)       -120.5994         calculate D2E/DX2 analytically  !
 ! D96   D(34,14,61,62)        -59.3829         calculate D2E/DX2 analytically  !
 ! D97   D(34,14,61,63)        179.9703         calculate D2E/DX2 analytically  !
 ! D98   D(34,14,61,64)         59.3406         calculate D2E/DX2 analytically  !
 ! D99   D(16,15,38,19)        179.8858         calculate D2E/DX2 analytically  !
 ! D100  D(16,15,38,56)         -0.0807         calculate D2E/DX2 analytically  !
 ! D101  D(47,15,38,19)         -0.166          calculate D2E/DX2 analytically  !
 ! D102  D(47,15,38,56)        179.8676         calculate D2E/DX2 analytically  !
 ! D103  D(16,15,47,7)        -179.7777         calculate D2E/DX2 analytically  !
 ! D104  D(16,15,47,48)         -0.1246         calculate D2E/DX2 analytically  !
 ! D105  D(38,15,47,7)           0.2719         calculate D2E/DX2 analytically  !
 ! D106  D(38,15,47,48)        179.925          calculate D2E/DX2 analytically  !
 ! D107  D(18,17,36,49)        179.8866         calculate D2E/DX2 analytically  !
 ! D108  D(18,17,36,78)         -0.0803         calculate D2E/DX2 analytically  !
 ! D109  D(51,17,36,49)         -0.1647         calculate D2E/DX2 analytically  !
 ! D110  D(51,17,36,78)        179.8684         calculate D2E/DX2 analytically  !
 ! D111  D(18,17,51,9)        -179.7779         calculate D2E/DX2 analytically  !
 ! D112  D(18,17,51,52)         -0.1246         calculate D2E/DX2 analytically  !
 ! D113  D(36,17,51,9)           0.2713         calculate D2E/DX2 analytically  !
 ! D114  D(36,17,51,52)        179.9245         calculate D2E/DX2 analytically  !
 ! D115  D(20,19,26,7)        -179.3835         calculate D2E/DX2 analytically  !
 ! D116  D(20,19,26,69)          0.7703         calculate D2E/DX2 analytically  !
 ! D117  D(38,19,26,7)           0.4192         calculate D2E/DX2 analytically  !
 ! D118  D(38,19,26,69)       -179.427          calculate D2E/DX2 analytically  !
 ! D119  D(20,19,38,15)        179.6367         calculate D2E/DX2 analytically  !
 ! D120  D(20,19,38,56)         -0.3957         calculate D2E/DX2 analytically  !
 ! D121  D(26,19,38,15)         -0.1657         calculate D2E/DX2 analytically  !
 ! D122  D(26,19,38,56)        179.802          calculate D2E/DX2 analytically  !
 ! D123  D(3,21,29,24)         179.7765         calculate D2E/DX2 analytically  !
 ! D124  D(3,21,29,30)          -0.2554         calculate D2E/DX2 analytically  !
 ! D125  D(53,21,29,24)         -0.0653         calculate D2E/DX2 analytically  !
 ! D126  D(53,21,29,30)        179.9028         calculate D2E/DX2 analytically  !
 ! D127  D(3,21,53,5)            0.0207         calculate D2E/DX2 analytically  !
 ! D128  D(3,21,53,39)         179.8617         calculate D2E/DX2 analytically  !
 ! D129  D(29,21,53,5)         179.8596         calculate D2E/DX2 analytically  !
 ! D130  D(29,21,53,39)         -0.2994         calculate D2E/DX2 analytically  !
 ! D131  D(23,22,25,2)          -0.2554         calculate D2E/DX2 analytically  !
 ! D132  D(23,22,25,42)        179.9026         calculate D2E/DX2 analytically  !
 ! D133  D(31,22,25,2)         179.7766         calculate D2E/DX2 analytically  !
 ! D134  D(31,22,25,42)         -0.0653         calculate D2E/DX2 analytically  !
 ! D135  D(23,22,31,32)       -179.109          calculate D2E/DX2 analytically  !
 ! D136  D(23,22,31,37)          0.6781         calculate D2E/DX2 analytically  !
 ! D137  D(25,22,31,32)          0.858          calculate D2E/DX2 analytically  !
 ! D138  D(25,22,31,37)       -179.3549         calculate D2E/DX2 analytically  !
 ! D139  D(41,24,29,21)       -179.354          calculate D2E/DX2 analytically  !
 ! D140  D(41,24,29,30)          0.6787         calculate D2E/DX2 analytically  !
 ! D141  D(91,24,29,21)          0.8586         calculate D2E/DX2 analytically  !
 ! D142  D(91,24,29,30)       -179.1086         calculate D2E/DX2 analytically  !
 ! D143  D(29,24,41,8)        -178.9935         calculate D2E/DX2 analytically  !
 ! D144  D(29,24,41,54)          1.1624         calculate D2E/DX2 analytically  !
 ! D145  D(91,24,41,8)           0.8026         calculate D2E/DX2 analytically  !
 ! D146  D(91,24,41,54)       -179.0415         calculate D2E/DX2 analytically  !
 ! D147  D(29,24,91,1)        -179.791          calculate D2E/DX2 analytically  !
 ! D148  D(29,24,91,39)         -1.2819         calculate D2E/DX2 analytically  !
 ! D149  D(41,24,91,1)           0.4052         calculate D2E/DX2 analytically  !
 ! D150  D(41,24,91,39)        178.9143         calculate D2E/DX2 analytically  !
 ! D151  D(2,25,42,4)            0.0209         calculate D2E/DX2 analytically  !
 ! D152  D(2,25,42,45)         179.8618         calculate D2E/DX2 analytically  !
 ! D153  D(22,25,42,4)         179.86           calculate D2E/DX2 analytically  !
 ! D154  D(22,25,42,45)         -0.2991         calculate D2E/DX2 analytically  !
 ! D155  D(7,26,69,9)            2.2678         calculate D2E/DX2 analytically  !
 ! D156  D(7,26,69,49)        -177.8764         calculate D2E/DX2 analytically  !
 ! D157  D(19,26,69,9)        -177.8788         calculate D2E/DX2 analytically  !
 ! D158  D(19,26,69,49)          1.977          calculate D2E/DX2 analytically  !
 ! D159  D(28,27,33,12)        179.8174         calculate D2E/DX2 analytically  !
 ! D160  D(28,27,33,70)         -0.1255         calculate D2E/DX2 analytically  !
 ! D161  D(43,27,33,12)         -0.2424         calculate D2E/DX2 analytically  !
 ! D162  D(43,27,33,70)        179.8146         calculate D2E/DX2 analytically  !
 ! D163  D(28,27,43,37)        179.9653         calculate D2E/DX2 analytically  !
 ! D164  D(28,27,43,44)         -0.1692         calculate D2E/DX2 analytically  !
 ! D165  D(33,27,43,37)          0.025          calculate D2E/DX2 analytically  !
 ! D166  D(33,27,43,44)        179.8906         calculate D2E/DX2 analytically  !
 ! D167  D(22,31,32,1)        -179.7916         calculate D2E/DX2 analytically  !
 ! D168  D(22,31,32,45)         -1.281          calculate D2E/DX2 analytically  !
 ! D169  D(37,31,32,1)           0.4048         calculate D2E/DX2 analytically  !
 ! D170  D(37,31,32,45)        178.9154         calculate D2E/DX2 analytically  !
 ! D171  D(22,31,37,6)        -178.9927         calculate D2E/DX2 analytically  !
 ! D172  D(22,31,37,43)          1.1633         calculate D2E/DX2 analytically  !
 ! D173  D(32,31,37,6)           0.8031         calculate D2E/DX2 analytically  !
 ! D174  D(32,31,37,43)       -179.0409         calculate D2E/DX2 analytically  !
 ! D175  D(1,32,45,42)         179.2301         calculate D2E/DX2 analytically  !
 ! D176  D(1,32,45,46)          -1.0705         calculate D2E/DX2 analytically  !
 ! D177  D(31,32,45,42)          0.9169         calculate D2E/DX2 analytically  !
 ! D178  D(31,32,45,46)       -179.3837         calculate D2E/DX2 analytically  !
 ! D179  D(12,33,70,71)        120.6663         calculate D2E/DX2 analytically  !
 ! D180  D(12,33,70,72)          0.0199         calculate D2E/DX2 analytically  !
 ! D181  D(12,33,70,73)       -120.6103         calculate D2E/DX2 analytically  !
 ! D182  D(27,33,70,71)        -59.3931         calculate D2E/DX2 analytically  !
 ! D183  D(27,33,70,72)        179.9605         calculate D2E/DX2 analytically  !
 ! D184  D(27,33,70,73)         59.3303         calculate D2E/DX2 analytically  !
 ! D185  D(14,34,54,41)          0.025          calculate D2E/DX2 analytically  !
 ! D186  D(14,34,54,55)        179.8907         calculate D2E/DX2 analytically  !
 ! D187  D(35,34,54,41)        179.9651         calculate D2E/DX2 analytically  !
 ! D188  D(35,34,54,55)         -0.1692         calculate D2E/DX2 analytically  !
 ! D189  D(17,36,49,50)        179.6356         calculate D2E/DX2 analytically  !
 ! D190  D(17,36,49,69)         -0.166          calculate D2E/DX2 analytically  !
 ! D191  D(78,36,49,50)         -0.3962         calculate D2E/DX2 analytically  !
 ! D192  D(78,36,49,69)        179.8021         calculate D2E/DX2 analytically  !
 ! D193  D(17,36,78,80)        120.4623         calculate D2E/DX2 analytically  !
 ! D194  D(17,36,78,84)          0.2457         calculate D2E/DX2 analytically  !
 ! D195  D(17,36,78,87)       -120.0013         calculate D2E/DX2 analytically  !
 ! D196  D(49,36,78,80)        -59.5035         calculate D2E/DX2 analytically  !
 ! D197  D(49,36,78,84)       -179.7201         calculate D2E/DX2 analytically  !
 ! D198  D(49,36,78,87)         60.0329         calculate D2E/DX2 analytically  !
 ! D199  D(6,37,43,27)           0.3012         calculate D2E/DX2 analytically  !
 ! D200  D(6,37,43,44)        -179.5642         calculate D2E/DX2 analytically  !
 ! D201  D(31,37,43,27)       -179.8628         calculate D2E/DX2 analytically  !
 ! D202  D(31,37,43,44)          0.2717         calculate D2E/DX2 analytically  !
 ! D203  D(15,38,56,57)       -119.9999         calculate D2E/DX2 analytically  !
 ! D204  D(15,38,56,65)        120.4636         calculate D2E/DX2 analytically  !
 ! D205  D(15,38,56,74)          0.247          calculate D2E/DX2 analytically  !
 ! D206  D(19,38,56,57)         60.0348         calculate D2E/DX2 analytically  !
 ! D207  D(19,38,56,65)        -59.5017         calculate D2E/DX2 analytically  !
 ! D208  D(19,38,56,74)       -179.7183         calculate D2E/DX2 analytically  !
 ! D209  D(40,39,53,5)          -0.002          calculate D2E/DX2 analytically  !
 ! D210  D(40,39,53,21)       -179.8452         calculate D2E/DX2 analytically  !
 ! D211  D(91,39,53,5)         179.7038         calculate D2E/DX2 analytically  !
 ! D212  D(91,39,53,21)         -0.1394         calculate D2E/DX2 analytically  !
 ! D213  D(40,39,91,1)          -1.0715         calculate D2E/DX2 analytically  !
 ! D214  D(40,39,91,24)       -179.3831         calculate D2E/DX2 analytically  !
 ! D215  D(53,39,91,1)         179.229          calculate D2E/DX2 analytically  !
 ! D216  D(53,39,91,24)          0.9174         calculate D2E/DX2 analytically  !
 ! D217  D(8,41,54,34)           0.3014         calculate D2E/DX2 analytically  !
 ! D218  D(8,41,54,55)        -179.5642         calculate D2E/DX2 analytically  !
 ! D219  D(24,41,54,34)       -179.8626         calculate D2E/DX2 analytically  !
 ! D220  D(24,41,54,55)          0.2718         calculate D2E/DX2 analytically  !
 ! D221  D(4,42,45,32)         179.7037         calculate D2E/DX2 analytically  !
 ! D222  D(4,42,45,46)          -0.0021         calculate D2E/DX2 analytically  !
 ! D223  D(25,42,45,32)         -0.1395         calculate D2E/DX2 analytically  !
 ! D224  D(25,42,45,46)       -179.8452         calculate D2E/DX2 analytically  !
 ! D225  D(36,49,69,9)           0.4179         calculate D2E/DX2 analytically  !
 ! D226  D(36,49,69,26)       -179.4308         calculate D2E/DX2 analytically  !
 ! D227  D(50,49,69,9)        -179.3842         calculate D2E/DX2 analytically  !
 ! D228  D(50,49,69,26)          0.7671         calculate D2E/DX2 analytically  !
 ! D229  D(38,56,57,58)        -60.9095         calculate D2E/DX2 analytically  !
 ! D230  D(38,56,57,59)        179.5852         calculate D2E/DX2 analytically  !
 ! D231  D(38,56,57,60)         60.2043         calculate D2E/DX2 analytically  !
 ! D232  D(65,56,57,58)         58.0075         calculate D2E/DX2 analytically  !
 ! D233  D(65,56,57,59)        -61.4978         calculate D2E/DX2 analytically  !
 ! D234  D(65,56,57,60)        179.1214         calculate D2E/DX2 analytically  !
 ! D235  D(74,56,57,58)        176.9383         calculate D2E/DX2 analytically  !
 ! D236  D(74,56,57,59)         57.433          calculate D2E/DX2 analytically  !
 ! D237  D(74,56,57,60)        -61.9479         calculate D2E/DX2 analytically  !
 ! D238  D(38,56,65,66)        -59.8493         calculate D2E/DX2 analytically  !
 ! D239  D(38,56,65,67)       -179.2288         calculate D2E/DX2 analytically  !
 ! D240  D(38,56,65,68)         61.2782         calculate D2E/DX2 analytically  !
 ! D241  D(57,56,65,66)       -178.7452         calculate D2E/DX2 analytically  !
 ! D242  D(57,56,65,67)         61.8753         calculate D2E/DX2 analytically  !
 ! D243  D(57,56,65,68)        -57.6177         calculate D2E/DX2 analytically  !
 ! D244  D(74,56,65,66)         62.2978         calculate D2E/DX2 analytically  !
 ! D245  D(74,56,65,67)        -57.0816         calculate D2E/DX2 analytically  !
 ! D246  D(74,56,65,68)       -176.5746         calculate D2E/DX2 analytically  !
 ! D247  D(38,56,74,75)        -60.9258         calculate D2E/DX2 analytically  !
 ! D248  D(38,56,74,76)        179.9986         calculate D2E/DX2 analytically  !
 ! D249  D(38,56,74,77)         60.9376         calculate D2E/DX2 analytically  !
 ! D250  D(57,56,74,75)         59.2867         calculate D2E/DX2 analytically  !
 ! D251  D(57,56,74,76)        -59.7889         calculate D2E/DX2 analytically  !
 ! D252  D(57,56,74,77)       -178.8499         calculate D2E/DX2 analytically  !
 ! D253  D(65,56,74,75)        178.8472         calculate D2E/DX2 analytically  !
 ! D254  D(65,56,74,76)         59.7716         calculate D2E/DX2 analytically  !
 ! D255  D(65,56,74,77)        -59.2894         calculate D2E/DX2 analytically  !
 ! D256  D(36,78,80,81)        -59.849          calculate D2E/DX2 analytically  !
 ! D257  D(36,78,80,82)       -179.2285         calculate D2E/DX2 analytically  !
 ! D258  D(36,78,80,83)         61.2785         calculate D2E/DX2 analytically  !
 ! D259  D(84,78,80,81)         62.2981         calculate D2E/DX2 analytically  !
 ! D260  D(84,78,80,82)        -57.0814         calculate D2E/DX2 analytically  !
 ! D261  D(84,78,80,83)       -176.5744         calculate D2E/DX2 analytically  !
 ! D262  D(87,78,80,81)       -178.7451         calculate D2E/DX2 analytically  !
 ! D263  D(87,78,80,82)         61.8754         calculate D2E/DX2 analytically  !
 ! D264  D(87,78,80,83)        -57.6175         calculate D2E/DX2 analytically  !
 ! D265  D(36,78,84,79)         60.937          calculate D2E/DX2 analytically  !
 ! D266  D(36,78,84,85)        -60.9264         calculate D2E/DX2 analytically  !
 ! D267  D(36,78,84,86)        179.998          calculate D2E/DX2 analytically  !
 ! D268  D(80,78,84,79)        -59.2899         calculate D2E/DX2 analytically  !
 ! D269  D(80,78,84,85)        178.8466         calculate D2E/DX2 analytically  !
 ! D270  D(80,78,84,86)         59.7711         calculate D2E/DX2 analytically  !
 ! D271  D(87,78,84,79)       -178.8503         calculate D2E/DX2 analytically  !
 ! D272  D(87,78,84,85)         59.2862         calculate D2E/DX2 analytically  !
 ! D273  D(87,78,84,86)        -59.7893         calculate D2E/DX2 analytically  !
 ! D274  D(36,78,87,88)        -60.9098         calculate D2E/DX2 analytically  !
 ! D275  D(36,78,87,89)        179.585          calculate D2E/DX2 analytically  !
 ! D276  D(36,78,87,90)         60.2041         calculate D2E/DX2 analytically  !
 ! D277  D(80,78,87,88)         58.0072         calculate D2E/DX2 analytically  !
 ! D278  D(80,78,87,89)        -61.498          calculate D2E/DX2 analytically  !
 ! D279  D(80,78,87,90)        179.1211         calculate D2E/DX2 analytically  !
 ! D280  D(84,78,87,88)        176.9379         calculate D2E/DX2 analytically  !
 ! D281  D(84,78,87,89)         57.4327         calculate D2E/DX2 analytically  !
 ! D282  D(84,78,87,90)        -61.9482         calculate D2E/DX2 analytically  !
 --------------------------------------------------------------------------------
 Trust Radius=3.00D-01 FncErr=1.00D-07 GrdErr=1.00D-07 EigMax=2.50D+02 EigMin=1.00D-04
 Number of steps in this run=      2 maximum allowed number of steps=      2.
 GradGradGradGradGradGradGradGradGradGradGradGradGradGradGradGradGradGrad

 Stoichiometry    C42H40Cl4IrN4(2+,2)
 Framework group  C1[X(C42H40Cl4IrN4)]
 Deg. of freedom   267
 Full point group                 C1      NOp   1
 Largest Abelian subgroup         C1      NOp   1
 Largest concise Abelian subgroup C1      NOp   1
                         Standard orientation:                         
 ---------------------------------------------------------------------
 Center     Atomic      Atomic             Coordinates (Angstroms)
 Number     Number       Type             X           Y           Z
 ---------------------------------------------------------------------
      1         77           0        0.394234    0.000023    0.000040
      2         17           0        4.697199    4.826890    0.715825
      3         17           0        4.696846   -4.827109   -0.716119
      4         17           0        4.045302    3.811826   -2.221657
      5         17           0        4.045209   -3.812060    2.221425
      6          7           0        0.469384    0.285626    2.065121
      7          7           0       -1.375326   -1.331342   -0.006138
      8          7           0        0.469212   -0.285567   -2.065047
      9          7           0       -1.375314    1.331386    0.006319
     10          6           0       -0.250477    0.412969   -2.950179
     11          1           0       -0.889684    1.201757   -2.546338
     12          6           0       -0.250281   -0.412856    2.950313
     13          1           0       -0.889566   -1.201610    2.546527
     14          6           0       -0.195174    0.168003   -4.320493
     15          6           0       -2.425221   -3.477266   -0.055973
     16          1           0       -2.275506   -4.556728   -0.066531
     17          6           0       -2.425192    3.477318    0.056214
     18          1           0       -2.275467    4.556777    0.066860
     19          6           0       -3.751340   -1.501317   -0.054179
     20          1           0       -4.718276   -0.998770   -0.072241
     21          6           0        3.564707   -3.546885   -0.457235
     22          6           0        2.938947    2.967862    1.559954
     23          1           0        3.185885    3.337947    2.556552
     24          6           0        2.020253   -1.938830   -1.372980
     25          6           0        3.564957    3.546738    0.457041
     26          6           0       -2.589053   -0.742277   -0.016837
     27          6           0        0.656125    0.858624    4.745833
     28          1           0        0.735059    1.094530    5.810958
     29          6           0        2.938660   -2.967948   -1.560094
     30          1           0        3.185504   -3.338033   -2.556715
     31          6           0        2.020461    1.938800    1.372922
     32          6           0        1.731660    1.463436    0.064515
     33          6           0       -0.194870   -0.167872    4.320620
     34          6           0        0.655736   -0.858534   -4.745780
     35          1           0        0.734586   -1.094426   -5.810915
     36          6           0       -3.698037    2.902459    0.073158
     37          6           0        1.299414    1.275210    2.469313
     38          6           0       -3.698059   -2.902396   -0.073072
     39          6           0        2.364809   -2.064619    1.034373
     40          1           0        2.156941   -1.729238    2.052462
     41          6           0        1.299162   -1.275188   -2.469311
     42          6           0        3.274679    3.095725   -0.844782
     43          6           0        1.403672    1.580865    3.824818
     44          1           0        2.064622    2.381544    4.160007
     45          6           0        2.364858    2.064527   -1.034459
     46          1           0        2.156901    1.729141   -2.052528
     47          6           0       -1.300351   -2.664887   -0.025546
     48          1           0       -0.300936   -3.104284   -0.010748
     49          6           0       -3.751330    1.501382    0.054182
     50          1           0       -4.718272    0.998842    0.072141
     51          6           0       -1.300327    2.664930    0.025823
     52          1           0       -0.300909    3.104321    0.011139
     53          6           0        3.274546   -3.095877    0.844615
     54          6           0        1.403308   -1.580829   -3.824828
     55          1           0        2.064194   -2.381538   -4.160074
     56          6           0       -4.990372   -3.717750   -0.109608
     57          6           0       -5.773497   -3.347830   -1.383484
     58          1           0       -6.047368   -2.278849   -1.404707
     59          1           0       -6.707780   -3.934614   -1.428809
     60          1           0       -5.183252   -3.571653   -2.289715
     61          6           0       -1.014905    0.972399   -5.286067
     62          1           0       -0.362395    1.485245   -6.013621
     63          1           0       -1.619913    1.730828   -4.764874
     64          1           0       -1.693764    0.315731   -5.857124
     65          6           0       -5.829091   -3.374309    1.136092
     66          1           0       -5.276699   -3.611138    2.062703
     67          1           0       -6.761106   -3.966369    1.131547
     68          1           0       -6.109984   -2.307401    1.164250
     69          6           0       -2.589047    0.742332    0.016903
     70          6           0       -1.014566   -0.972218    5.286266
     71          1           0       -0.362010   -1.485234    6.013660
     72          1           0       -1.619785   -1.730506    4.765113
     73          1           0       -1.693217   -0.315492    5.857501
     74          6           0       -4.715432   -5.226122   -0.118753
     75          1           0       -4.132418   -5.532041   -1.004835
     76          1           0       -5.674157   -5.771923   -0.145238
     77          1           0       -4.171823   -5.549814    0.785960
     78          6           0       -4.990346    3.717824    0.109626
     79          1           0       -4.171673    5.549949   -0.785701
     80          6           0       -5.828936    3.374493   -1.136191
     81          1           0       -5.276442    3.611388   -2.062725
     82          1           0       -6.760943    3.966566   -1.131699
     83          1           0       -6.109840    2.307592   -1.164464
     84          6           0       -4.715389    5.226192    0.118923
     85          1           0       -4.132475    5.532033    1.005097
     86          1           0       -5.674111    5.772001    0.145342
     87          6           0       -5.773612    3.347808    1.383388
     88          1           0       -6.047502    2.278830    1.404493
     89          1           0       -6.707890    3.934604    1.428663
     90          1           0       -5.183459    3.571547    2.289701
     91          6           0        1.731581   -1.463465   -0.064546
 ---------------------------------------------------------------------
 Rotational constants (GHZ):           0.0505794           0.0426433           0.0338504
 Standard basis: def2SVPP (5D, 7F)
 There are   873 symmetry adapted cartesian basis functions of A   symmetry.
 There are   821 symmetry adapted basis functions of A   symmetry.
   821 basis functions,  1513 primitive gaussians,   873 cartesian basis functions
   202 alpha electrons      201 beta electrons
       nuclear repulsion energy      8263.8183059474 Hartrees.
 NAtoms=   91 NActive=   91 NUniq=   91 SFac= 1.00D+00 NAtFMM=   60 NAOKFM=T Big=T
 Integral buffers will be    131072 words long.
 Raffenetti 2 integral format.
 Two-electron integral symmetry is turned on.
 Nuclear repulsion after empirical dispersion term =     8263.7079005403 Hartrees.
 Force inversion solution in PCM.
 ------------------------------------------------------------------------------
 Polarizable Continuum Model (PCM)
 =================================
 Model                : PCM.
 Atomic radii         : SMD-Coulomb.
 Polarization charges : Total charges.
 Charge compensation  : None.
 Solution method      : Matrix inversion.
 Cavity type          : VdW (van der Waals Surface) (Alpha=1.000).
 Cavity algorithm     : GePol (No added spheres)
                        Default sphere list used, NSphG=   91.
                        Lebedev-Laikov grids with approx.  5.0 points / Ang**2.
                        Smoothing algorithm: York/Karplus (Gamma=1.0000).
                        Polarization charges: spherical gaussians, with
                                              point-specific exponents (IZeta= 3).
                        Self-potential: point-specific (ISelfS= 7).
                        Self-field    : sphere-specific E.n sum rule (ISelfD= 2).
 1st derivatives      : Analytical E(r).r(x)/FMM algorithm (CHGder, D1EAlg=3).
                        Cavity 1st derivative terms included.
 2nd derivatives      : Analytical E(r).r(xy)/FMM algorithm (CHGder, D2EAlg=3).
                        Cavity 2nd derivative terms included.
 Solvent              : Acetonitrile, Eps=  35.688000 Eps(inf)=   1.806874
 ------------------------------------------------------------------------------
 ------------------------------------------------------------------------------
 Atomic radii for non-electrostatic terms: SMD-CDS.
 ------------------------------------------------------------------------------
 Nuclear repulsion after PCM non-electrostatic terms =     8263.6919525251 Hartrees.
 One-electron integrals computed using PRISM.
   1 Symmetry operations used in ECPInt.
 ECPInt:  NShTT=   79800 NPrTT=  322826 LenC2=   64811 LenP2D=  156979.
 LDataN:  DoStor=T MaxTD1= 7 Len=  274
 NBasis=   821 RedAO= T EigKep=  1.87D-04  NBF=   821
 NBsUse=   821 1.00D-06 EigRej= -1.00D+00 NBFU=   821
 SCF restart from the checkpoint file:  "C8.chk"
 B after Tr=     0.000000    0.000000    0.000000
         Rot=    1.000000    0.000000    0.000000    0.000000 Ang=   0.00 deg.
 Initial guess <Sx>= 0.0000 <Sy>= 0.0000 <Sz>= 0.5000 <S**2>= 0.7814 S= 0.5156
 Requested convergence on RMS density matrix=1.00D-08 within 500 cycles.
 Requested convergence on MAX density matrix=1.00D-06.
 Requested convergence on             energy=1.00D-06.
 No special actions if energy rises.
 Inv3:  Mode=1 IEnd=   141508272.
 Iteration    1 A*A^-1 deviation from unit magnitude is 1.07D-14 for   6863.
 Iteration    1 A*A^-1 deviation from orthogonality  is 3.89D-15 for   6850   2922.
 Iteration    1 A^-1*A deviation from unit magnitude is 1.05D-14 for   6863.
 Iteration    1 A^-1*A deviation from orthogonality  is 2.47D-14 for   2324   2299.
 Error on total polarization charges =  0.05350
 SCF Done:  E(UwB97XD) =  -3786.08132236     A.U. after    1 cycles
            NFock=  1  Conv=0.29D-09     -V/T= 2.0251
 <Sx>= 0.0000 <Sy>= 0.0000 <Sz>= 0.5000 <S**2>= 0.7814 S= 0.5156
 <L.S>= 0.000000000000E+00
 SMD-CDS (non-electrostatic) energy       (kcal/mol) =     -10.01
 (included in total energy above)
 Annihilation of the first spin contaminant:
 S**2 before annihilation     0.7814,   after     0.7509
 DoSCS=F DFT=T ScalE2(SS,OS)=  1.000000  1.000000
 Range of M.O.s used for correlation:     1   821
 NBasis=   821 NAE=   202 NBE=   201 NFC=     0 NFV=     0
 NROrb=    821 NOA=   202 NOB=   201 NVA=   619 NVB=   620

 **** Warning!!: The largest alpha MO coefficient is  0.10659668D+02

   1 Symmetry operations used in ECPInt.
 ECPInt:  NShTT=   79800 NPrTT=  322826 LenC2=   64811 LenP2D=  156979.
 LDataN:  DoStor=T MaxTD1= 8 Len=  415
 Number of processors reduced to   9 by ecpmxn.
 Symmetrizing basis deriv contribution to polar:
 IMax=3 JMax=2 DiffMx= 0.00D+00
 G2DrvN: will do    92 centers at a time, making    1 passes.
 Calling FoFCou, ICntrl=  3107 FMM=T I1Cent=   0 AccDes= 0.00D+00.
 NEqPCM:  Using equilibrium solvation (IEInf=0, Eps=  35.6880, EpsInf=   1.8069)
 G2PCM: DoFxE=T DoFxN=T DoGrad=T DoDP/DQ/DG/TGxP=FFFF NFrqRd=   0 IEInf=0 SqF1=F DoCFld=F IF1Alg=4.
 End of G2Drv F.D. properties file   721 does not exist.
 End of G2Drv F.D. properties file   722 does not exist.
 End of G2Drv F.D. properties file   788 does not exist.
          IDoAtm=11111111111111111111111111111111111111111111111111
          IDoAtm=11111111111111111111111111111111111111111
 NEqPCM:  Using equilibrium solvation (IEInf=0, Eps=  35.6880, EpsInf=   1.8069)
          Differentiating once with respect to electric field.
                with respect to dipole field.
          Differentiating once with respect to nuclear coordinates.
 Defaulting to unpruned grid for atomic number  77.
 CalDSu exits because no D1Ps are significant.
 Defaulting to unpruned grid for atomic number  77.
 Defaulting to unpruned grid for atomic number  77.
 Defaulting to unpruned grid for atomic number  77.
 Defaulting to unpruned grid for atomic number  77.
 Defaulting to unpruned grid for atomic number  77.
 Defaulting to unpruned grid for atomic number  77.
 Defaulting to unpruned grid for atomic number  77.
 Defaulting to unpruned grid for atomic number  77.
 Defaulting to unpruned grid for atomic number  77.
 Defaulting to unpruned grid for atomic number  77.
 Defaulting to unpruned grid for atomic number  77.
 Defaulting to unpruned grid for atomic number  77.
 Defaulting to unpruned grid for atomic number  77.
 Defaulting to unpruned grid for atomic number  77.
 Defaulting to unpruned grid for atomic number  77.
 Defaulting to unpruned grid for atomic number  77.
 Defaulting to unpruned grid for atomic number  77.
 Defaulting to unpruned grid for atomic number  77.
 Defaulting to unpruned grid for atomic number  77.
 Defaulting to unpruned grid for atomic number  77.
          There are   276 degrees of freedom in the 1st order CPHF.  IDoFFX=6 NUNeed=     3.
    273 vectors produced by pass  0 Test12= 2.50D-13 1.00D-09 XBig12= 8.60D+02 1.37D+01.
 AX will form    72 AO Fock derivatives at one time.
    273 vectors produced by pass  1 Test12= 2.50D-13 1.00D-09 XBig12= 5.49D+01 2.33D+00.
    273 vectors produced by pass  2 Test12= 2.50D-13 1.00D-09 XBig12= 5.25D+00 4.01D-01.
    273 vectors produced by pass  3 Test12= 2.50D-13 1.00D-09 XBig12= 1.08D-01 2.99D-02.
    273 vectors produced by pass  4 Test12= 2.50D-13 1.00D-09 XBig12= 1.56D-03 4.83D-03.
    273 vectors produced by pass  5 Test12= 2.50D-13 1.00D-09 XBig12= 1.79D-05 6.17D-04.
    229 vectors produced by pass  6 Test12= 2.50D-13 1.00D-09 XBig12= 2.09D-07 7.19D-05.
    153 vectors produced by pass  7 Test12= 2.50D-13 1.00D-09 XBig12= 2.43D-09 5.96D-06.
     46 vectors produced by pass  8 Test12= 2.50D-13 1.00D-09 XBig12= 2.09D-11 2.85D-07.
      4 vectors produced by pass  9 Test12= 2.50D-13 1.00D-09 XBig12= 1.92D-13 2.44D-08.
      3 vectors produced by pass 10 Test12= 2.50D-13 1.00D-09 XBig12= 2.30D-15 2.66D-09.
 InvSVY:  IOpt=1 It=  1 EMax= 4.26D-14
 Solved reduced A of dimension  2073 with   276 vectors.
 Isotropic polarizability for W=    0.000000      990.17 Bohr**3.
 End of Minotr F.D. properties file   721 does not exist.
 End of Minotr F.D. properties file   722 does not exist.
 End of Minotr F.D. properties file   788 does not exist.

 **********************************************************************

            Population analysis using the SCF Density.

 **********************************************************************

 Orbital symmetries:
 Alpha Orbitals:
       Occupied  (A) (A) (A) (A) (A) (A) (A) (A) (A) (A) (A) (A)
                 (A) (A) (A) (A) (A) (A) (A) (A) (A) (A) (A) (A)
                 (A) (A) (A) (A) (A) (A) (A) (A) (A) (A) (A) (A)
                 (A) (A) (A) (A) (A) (A) (A) (A) (A) (A) (A) (A)
                 (A) (A) (A) (A) (A) (A) (A) (A) (A) (A) (A) (A)
                 (A) (A) (A) (A) (A) (A) (A) (A) (A) (A) (A) (A)
                 (A) (A) (A) (A) (A) (A) (A) (A) (A) (A) (A) (A)
                 (A) (A) (A) (A) (A) (A) (A) (A) (A) (A) (A) (A)
                 (A) (A) (A) (A) (A) (A) (A) (A) (A) (A) (A) (A)
                 (A) (A) (A) (A) (A) (A) (A) (A) (A) (A) (A) (A)
                 (A) (A) (A) (A) (A) (A) (A) (A) (A) (A) (A) (A)
                 (A) (A) (A) (A) (A) (A) (A) (A) (A) (A) (A) (A)
                 (A) (A) (A) (A) (A) (A) (A) (A) (A) (A) (A) (A)
                 (A) (A) (A) (A) (A) (A) (A) (A) (A) (A) (A) (A)
                 (A) (A) (A) (A) (A) (A) (A) (A) (A) (A) (A) (A)
                 (A) (A) (A) (A) (A) (A) (A) (A) (A) (A) (A) (A)
                 (A) (A) (A) (A) (A) (A) (A) (A) (A) (A)
       Virtual   (A) (A) (A) (A) (A) (A) (A) (A) (A) (A) (A) (A)
                 (A) (A) (A) (A) (A) (A) (A) (A) (A) (A) (A) (A)
                 (A) (A) (A) (A) (A) (A) (A) (A) (A) (A) (A) (A)
                 (A) (A) (A) (A) (A) (A) (A) (A) (A) (A) (A) (A)
                 (A) (A) (A) (A) (A) (A) (A) (A) (A) (A) (A) (A)
                 (A) (A) (A) (A) (A) (A) (A) (A) (A) (A) (A) (A)
                 (A) (A) (A) (A) (A) (A) (A) (A) (A) (A) (A) (A)
                 (A) (A) (A) (A) (A) (A) (A) (A) (A) (A) (A) (A)
                 (A) (A) (A) (A) (A) (A) (A) (A) (A) (A) (A) (A)
                 (A) (A) (A) (A) (A) (A) (A) (A) (A) (A) (A) (A)
                 (A) (A) (A) (A) (A) (A) (A) (A) (A) (A) (A) (A)
                 (A) (A) (A) (A) (A) (A) (A) (A) (A) (A) (A) (A)
                 (A) (A) (A) (A) (A) (A) (A) (A) (A) (A) (A) (A)
                 (A) (A) (A) (A) (A) (A) (A) (A) (A) (A) (A) (A)
                 (A) (A) (A) (A) (A) (A) (A) (A) (A) (A) (A) (A)
                 (A) (A) (A) (A) (A) (A) (A) (A) (A) (A) (A) (A)
                 (A) (A) (A) (A) (A) (A) (A) (A) (A) (A) (A) (A)
                 (A) (A) (A) (A) (A) (A) (A) (A) (A) (A) (A) (A)
                 (A) (A) (A) (A) (A) (A) (A) (A) (A) (A) (A) (A)
                 (A) (A) (A) (A) (A) (A) (A) (A) (A) (A) (A) (A)
                 (A) (A) (A) (A) (A) (A) (A) (A) (A) (A) (A) (A)
                 (A) (A) (A) (A) (A) (A) (A) (A) (A) (A) (A) (A)
                 (A) (A) (A) (A) (A) (A) (A) (A) (A) (A) (A) (A)
                 (A) (A) (A) (A) (A) (A) (A) (A) (A) (A) (A) (A)
                 (A) (A) (A) (A) (A) (A) (A) (A) (A) (A) (A) (A)
                 (A) (A) (A) (A) (A) (A) (A) (A) (A) (A) (A) (A)
                 (A) (A) (A) (A) (A) (A) (A) (A) (A) (A) (A) (A)
                 (A) (A) (A) (A) (A) (A) (A) (A) (A) (A) (A) (A)
                 (A) (A) (A) (A) (A) (A) (A) (A) (A) (A) (A) (A)
                 (A) (A) (A) (A) (A) (A) (A) (A) (A) (A) (A) (A)
                 (A) (A) (A) (A) (A) (A) (A) (A) (A) (A) (A) (A)
                 (A) (A) (A) (A) (A) (A) (A) (A) (A) (A) (A) (A)
                 (A) (A) (A) (A) (A) (A) (A) (A) (A) (A) (A) (A)
                 (A) (A) (A) (A) (A) (A) (A) (A) (A) (A) (A) (A)
                 (A) (A) (A) (A) (A) (A) (A) (A) (A) (A) (A) (A)
                 (A) (A) (A) (A) (A) (A) (A) (A) (A) (A) (A) (A)
                 (A) (A) (A) (A) (A) (A) (A) (A) (A) (A) (A) (A)
                 (A) (A) (A) (A) (A) (A) (A) (A) (A) (A) (A) (A)
                 (A) (A) (A) (A) (A) (A) (A) (A) (A) (A) (A) (A)
                 (A) (A) (A) (A) (A) (A) (A) (A) (A) (A) (A) (A)
                 (A) (A) (A) (A) (A) (A) (A) (A) (A) (A) (A) (A)
                 (A) (A) (A) (A) (A) (A) (A) (A) (A) (A) (A) (A)
                 (A) (A) (A) (A) (A) (A) (A) (A) (A) (A) (A) (A)
                 (A) (A) (A) (A) (A) (A) (A) (A) (A) (A) (A) (A)
                 (A) (A) (A) (A) (A) (A) (A) (A) (A) (A) (A) (A)
                 (A) (A) (A) (A) (A) (A) (A) (A) (A) (A) (A) (A)
                 (A) (A) (A) (A) (A) (A) (A) (A) (A) (A) (A) (A)
                 (A) (A) (A) (A) (A) (A) (A) (A) (A) (A) (A) (A)
                 (A) (A) (A) (A) (A) (A) (A) (A) (A) (A) (A) (A)
                 (A) (A) (A) (A) (A) (A) (A) (A) (A) (A) (A) (A)
                 (A) (A) (A) (A) (A) (A) (A) (A) (A) (A) (A) (A)
                 (A) (A) (A) (A) (A) (A) (A)
 Beta  Orbitals:
       Occupied  (A) (A) (A) (A) (A) (A) (A) (A) (A) (A) (A) (A)
                 (A) (A) (A) (A) (A) (A) (A) (A) (A) (A) (A) (A)
                 (A) (A) (A) (A) (A) (A) (A) (A) (A) (A) (A) (A)
                 (A) (A) (A) (A) (A) (A) (A) (A) (A) (A) (A) (A)
                 (A) (A) (A) (A) (A) (A) (A) (A) (A) (A) (A) (A)
                 (A) (A) (A) (A) (A) (A) (A) (A) (A) (A) (A) (A)
                 (A) (A) (A) (A) (A) (A) (A) (A) (A) (A) (A) (A)
                 (A) (A) (A) (A) (A) (A) (A) (A) (A) (A) (A) (A)
                 (A) (A) (A) (A) (A) (A) (A) (A) (A) (A) (A) (A)
                 (A) (A) (A) (A) (A) (A) (A) (A) (A) (A) (A) (A)
                 (A) (A) (A) (A) (A) (A) (A) (A) (A) (A) (A) (A)
                 (A) (A) (A) (A) (A) (A) (A) (A) (A) (A) (A) (A)
                 (A) (A) (A) (A) (A) (A) (A) (A) (A) (A) (A) (A)
                 (A) (A) (A) (A) (A) (A) (A) (A) (A) (A) (A) (A)
                 (A) (A) (A) (A) (A) (A) (A) (A) (A) (A) (A) (A)
                 (A) (A) (A) (A) (A) (A) (A) (A) (A) (A) (A) (A)
                 (A) (A) (A) (A) (A) (A) (A) (A) (A)
       Virtual   (A) (A) (A) (A) (A) (A) (A) (A) (A) (A) (A) (A)
                 (A) (A) (A) (A) (A) (A) (A) (A) (A) (A) (A) (A)
                 (A) (A) (A) (A) (A) (A) (A) (A) (A) (A) (A) (A)
                 (A) (A) (A) (A) (A) (A) (A) (A) (A) (A) (A) (A)
                 (A) (A) (A) (A) (A) (A) (A) (A) (A) (A) (A) (A)
                 (A) (A) (A) (A) (A) (A) (A) (A) (A) (A) (A) (A)
                 (A) (A) (A) (A) (A) (A) (A) (A) (A) (A) (A) (A)
                 (A) (A) (A) (A) (A) (A) (A) (A) (A) (A) (A) (A)
                 (A) (A) (A) (A) (A) (A) (A) (A) (A) (A) (A) (A)
                 (A) (A) (A) (A) (A) (A) (A) (A) (A) (A) (A) (A)
                 (A) (A) (A) (A) (A) (A) (A) (A) (A) (A) (A) (A)
                 (A) (A) (A) (A) (A) (A) (A) (A) (A) (A) (A) (A)
                 (A) (A) (A) (A) (A) (A) (A) (A) (A) (A) (A) (A)
                 (A) (A) (A) (A) (A) (A) (A) (A) (A) (A) (A) (A)
                 (A) (A) (A) (A) (A) (A) (A) (A) (A) (A) (A) (A)
                 (A) (A) (A) (A) (A) (A) (A) (A) (A) (A) (A) (A)
                 (A) (A) (A) (A) (A) (A) (A) (A) (A) (A) (A) (A)
                 (A) (A) (A) (A) (A) (A) (A) (A) (A) (A) (A) (A)
                 (A) (A) (A) (A) (A) (A) (A) (A) (A) (A) (A) (A)
                 (A) (A) (A) (A) (A) (A) (A) (A) (A) (A) (A) (A)
                 (A) (A) (A) (A) (A) (A) (A) (A) (A) (A) (A) (A)
                 (A) (A) (A) (A) (A) (A) (A) (A) (A) (A) (A) (A)
                 (A) (A) (A) (A) (A) (A) (A) (A) (A) (A) (A) (A)
                 (A) (A) (A) (A) (A) (A) (A) (A) (A) (A) (A) (A)
                 (A) (A) (A) (A) (A) (A) (A) (A) (A) (A) (A) (A)
                 (A) (A) (A) (A) (A) (A) (A) (A) (A) (A) (A) (A)
[...]
 .00070550,0.00007315,-0.00081899,0.00014682,-0.00011577,-0.00007536,-0
 .00014109,0.00000616,0.00006170,0.00066228,0.00068468,-0.00002946,-0.0
 0008828,-0.00001699,0.00012545,-0.00000409,-0.00007922,0.00001978,-0.1
 2905905,-0.03310955,0.12038809,-0.00335631,-0.00000900,0.00403293,-0.0
 1100832,-0.00781250,0.01974182,0.13311369,0.00000573,-0.00001040,0.000
 01357,-0.00000084,-0.00000102,0.00000005,-0.00000171,0.00000196,-0.000
 00052,-0.00000100,-0.00000089,-0.00000179,-0.00000028,0.00000040,0.000
 00074,-0.00000049,0.00000381,0.00000140,0.00000483,-0.00000105,-0.0000
 0320,0.00000051,0.00000051,-0.00000212,-0.00002399,-0.00005838,0.00000
 806,-0.00000030,0.00000088,-0.00000193,-0.00000003,-0.00000016,0.00000
 123,-0.00000277,0.00000135,-0.00000663,0.00000136,-0.00000212,0.000001
 03,0.00000001,-0.00000026,0.00000145,-0.00000394,-0.00000027,-0.000000
 15,0.00000016,-0.00000007,0.00000051,0.00006677,-0.00001070,-0.0000105
 9,-0.00000771,0.00000501,0.00001058,-0.00000306,0.00000804,-0.00000617
 ,-0.00000252,0.00000589,0.00000034,0.00000175,-0.00000213,0.00000257,-
 0.00000161,-0.00000112,-0.00000149,0.00000054,-0.00000004,0.00000017,0
 .,-0.00000050,0.00000474,0.00000149,0.00000135,0.00000176,-0.00000570,
 0.00000180,0.00000830,0.00000216,0.00000383,-0.00000036,0.00000085,-0.
 00000023,-0.00000030,-0.00000047,0.00000060,0.00000033,-0.00000015,0.0
 0000020,-0.00000008,0.00000132,0.00000102,0.00000316,0.00000330,0.0000
 0291,0.00000009,-0.00000242,-0.00000250,0.00000448,-0.00000037,0.00000
 043,0.00000006,-0.00000005,0.00000004,-0.00000016,-0.00002328,0.000056
 42,0.00045529,0.00000229,-0.00000190,0.00000344,0.00000093,-0.00000620
 ,-0.00000023,0.00000205,-0.00000266,-0.00000175,0.00000074,-0.00000013
 ,0.00000004,0.00000099,-0.00000131,0.00000027,0.00000186,0.00000207,-0
 .00000026,-0.00000121,0.00000023,-0.00000429,0.00000014,-0.00000020,-0
 .00000016,-0.00000249,-0.00000209,-0.00000061,0.00000003,0.00000013,-0
 .00000016,0.00000275,0.00000409,0.00000024,-0.00000019,0.00000014,0.00
 000013,-0.00021595,-0.00014192,0.00005533,0.00002259,0.00009429,0.0000
 5176,-0.00002060,0.00003872,-0.00002156,-0.00000317,0.00000270,0.00000
 726,-0.00000161,0.00000219,-0.00000395,0.00000030,-0.00000019,-0.00000
 104,-0.00000004,0.00000005,0.,-0.00000029,-0.00000072,0.00000115,-0.00
 000057,0.00000286,0.00000107,-0.00000084,-0.00000136,0.00000047,0.0000
 0052,0.00000005,-0.00000060,0.00000029,-0.00000027,-0.00000063,-0.0000
 0002,0.00000032,-0.00000044,0.00000023,-0.00000018,-0.00000012,0.00000
 006,-0.00000028,-0.00000004,0.00000010,-0.00000013,-0.00000029,0.00000
 075,0.00000221,-0.00000033,0.00000072,-0.00000262,-0.00000112,0.000000
 58,0.00000108,-0.00000034,-0.00000242,0.00000067,0.00000195,0.00011125
 ,0.00004982,-0.00008122,-0.00000150,0.00000152,0.00000214,-0.00000157,
 0.00000019,0.00000034,0.00000078,-0.00000252,-0.00000096,0.00000063,-0
 .00000022,-0.00000362,0.00000055,0.00000027,-0.00000039,-0.00000016,0.
 00000018,-0.00000018,0.00000018,0.00000040,0.00000007,0.00000035,-0.00
 000074,-0.00000028,0.00441416,-0.00000384,-0.00523876,0.00009512,0.000
 06767,0.00009049,-0.00071052,0.00016304,-0.00109713,0.00006925,0.00046
 179,-0.00030770,-0.00023373,-0.00002275,0.00012346,0.00015167,0.000185
 49,-0.00012061,0.00054150,0.00043454,-0.00074522,-0.00021087,-0.000054
 98,-0.00021035,0.00003334,-0.00000652,0.00002547,-0.03315211,-0.063252
 35,0.04967675,-0.01561856,-0.00331201,0.02447738,0.00806511,0.00486940
 ,-0.01496760,0.03665279,0.06042166,0.00002901,-0.00001267,0.00000573,-
 0.00000303,-0.00000324,0.00000095,-0.00000035,0.00000051,0.00000004,-0
 .00000006,-0.00000029,-0.00000036,-0.00000100,0.00000080,0.00000138,-0
 .00000003,-0.00000229,-0.00000219,-0.00000464,0.00000941,0.00000292,0.
 00000275,-0.00000234,0.00000129,-0.00009032,0.00001615,0.00003036,0.00
 000211,-0.00000204,0.00000428,0.00000107,0.00000046,0.00000177,0.00000
 061,-0.00000090,0.00000381,-0.00000059,0.00000123,-0.00000136,-0.00000
 144,0.00000218,-0.00000346,-0.00001218,0.00000352,0.00000087,-0.000000
 25,0.00000044,-0.00000028,-0.00025077,0.00009942,0.00010346,0.00000837
 ,-0.00000770,0.00003573,0.00000677,0.00001808,0.00000626,-0.00000375,-
 0.00000760,-0.00000138,0.00000064,-0.00000037,-0.00000075,0.00000074,-
 0.00000110,0.00000029,-0.00000137,0.00000015,0.00000011,-0.00000096,0.
 00000299,-0.00000027,0.00000234,0.00000288,-0.00000578,-0.00002913,-0.
 00002846,-0.00000493,-0.00000129,-0.00000259,0.00000051,-0.00000064,0.
 00000049,0.00000094,-0.00000111,-0.00000008,-0.00000102,-0.00000018,0.
 00000027,-0.00000008,-0.00000005,0.00000187,-0.00001078,-0.00000797,-0
 .00001038,0.00000267,0.00000161,0.00000208,-0.00000223,0.00000130,-0.0
 0000156,-0.00000025,0.00000011,0.00000010,-0.00000009,0.00167160,-0.00
 052485,0.00021734,-0.00000024,0.00000305,-0.00000366,0.00000349,-0.000
 01304,-0.00000148,-0.00000312,0.00000357,-0.00000079,0.00000006,0.0000
 0049,0.00000042,0.00000042,0.00000079,-0.00000162,-0.00000391,-0.00000
 527,0.00000659,0.00000147,-0.00000050,0.00000350,-0.00000116,-0.000000
 12,0.00000028,0.00000502,0.00000592,0.00000446,0.00000040,-0.00000029,
 -0.00000006,0.00000387,0.00001350,-0.00000046,-0.00000025,0.00000140,-
 0.00000051,-0.00021437,0.00024269,-0.00002286,-0.00001198,-0.00008272,
 0.00006177,-0.00005405,-0.00006820,-0.00010795,-0.00001783,0.00001500,
 0.00000760,0.00000060,-0.00000179,0.00000073,-0.00000095,0.00000058,0.
 00000210,-0.00000007,0.00000010,0.00000004,-0.00000176,-0.00000095,-0.
 00000134,0.00000105,-0.00000048,0.00000106,-0.00000043,0.00000103,-0.0
 0000090,0.00000058,0.00000049,-0.00000024,-0.00000006,-0.00000063,0.00
 000044,-0.00000003,-0.00000185,0.00000056,-0.00000052,0.00000022,-0.00
 000021,0.00000050,0.00000140,0.00000056,0.00000031,-0.00000012,0.00000
 069,0.00000008,0.00000093,-0.00000178,-0.00000049,0.00000110,0.0000012
 3,0.00000073,-0.00000029,0.00000089,0.00000037,-0.00000053,-0.00000114
 ,0.00013446,0.00003652,-0.00007333,-0.00000056,-0.00000026,-0.00000091
 ,0.00000077,0.00000011,0.00000002,-0.00000016,0.00000114,0.00000048,0.
 00000069,0.00000029,0.00000242,0.00000129,-0.00000030,0.00000043,0.000
 00009,-0.00000020,0.00000018,0.00000027,0.00000069,-0.00000008,-0.0000
 0038,0.00000059,0.00000022,0.01429326,0.00651029,-0.01954377,-0.000216
 08,0.00006507,0.00021127,-0.00439159,-0.00162344,-0.00399989,0.0009192
 0,0.00035714,-0.00149774,-0.00002955,-0.00008477,0.00028401,-0.0000639
 0,0.00003490,0.00022787,0.00073388,0.00105160,0.00086094,-0.00022849,-
 0.00055018,0.00019355,-0.00005973,-0.00005050,-0.00001031,0.11767674,0
 .04847400,-0.22316500,-0.00229409,-0.00080820,0.00270915,-0.00214059,-
 0.00089995,0.00241892,-0.12536417,-0.05218921,0.24105032,-0.10124147,0
 .00562902,0.00537196,0.00517822,0.00571114,-0.00121923,-0.00765769,0.0
 0759341,-0.00170238,0.00092529,0.00080381,0.00254268,0.00136034,0.0045
 1157,0.00239340,0.00328369,0.00300666,-0.00097986,-0.00316505,0.003257
 70,-0.00019916,-0.00343798,0.00364263,0.00412748,0.00190446,0.00964701
 ,0.00031263,0.00148844,-0.00101229,-0.00547863,0.00012288,-0.00007058,
 -0.00004557,-0.00104453,-0.00095143,-0.00370740,-0.00003116,0.00005885
 ,-0.00002154,0.00076414,-0.00128170,0.00339213,0.00028021,0.00062651,0
 .00011822,0.00004591,-0.00001379,-0.00000335,-0.00034134,0.00057191,0.
 00000092,-0.00014277,0.00004808,-0.00004173,-0.00001106,-0.00024757,0.
 00000277,0.00000517,0.00002826,-0.00000993,0.00373362,-0.01309146,0.01
 767042,0.00262598,0.00390372,0.00481040,0.00003880,0.00033937,-0.00022
 964,-0.09356321,0.02136008,-0.01647800,-0.00526607,-0.00683523,0.00762
 363,-0.00023327,0.00030848,0.00011400,0.00016447,0.00003013,0.00046475
 ,-0.00003516,-0.00002617,-0.00017898,-0.00035574,0.01716854,-0.0158190
 9,0.00147740,0.00626920,0.00033914,-0.00279381,-0.00809167,0.01877661,
 0.03039345,0.03005998,-0.00498199,-0.00041604,-0.00087100,0.00240169,-
 0.00027877,0.00006194,0.00158119,-0.00019123,0.00002677,-0.00004193,0.
 00026669,0.00014933,0.00001812,-0.00076696,-0.00088969,-0.00056083,-0.
 00026387,0.00000998,0.00001847,-0.11217906,0.04113145,0.07847882,0.005
 23552,-0.00351512,-0.00417633,0.00844143,-0.00594171,0.01257726,0.0061
 9661,0.00963962,-0.01516318,-0.00092834,-0.00087085,0.00018129,0.00002
 233,0.00004503,0.00021054,-0.01239441,-0.01270809,-0.01136610,0.000343
 44,-0.00020990,0.00033545,-0.00261664,-0.00210550,-0.00006574,-0.00166
 666,-0.00077566,-0.00047353,-0.00001109,-0.00005265,-0.00002323,-0.000
 00592,-0.00000552,0.00000985,-0.00162799,-0.00001672,0.00022844,0.0002
 7547,-0.00017031,-0.00015484,-0.02391370,0.04017544,-0.01009105,-0.000
 34192,0.00172175,0.00160163,0.00001559,-0.00001591,0.00020259,0.000010
 07,0.00001069,-0.00003612,0.00000216,0.00000518,-0.00000405,-0.0000005
 4,-0.00000313,-0.00000133,0.00000152,0.00000106,0.00000164,-0.00000018
 ,-0.00000330,0.00000797,-0.00000234,0.00005604,-0.00077582,0.00020064,
 -0.00020447,-0.00007660,0.00009776,-0.00008940,-0.00003134,0.00018752,
 -0.00020225,-0.00005789,-0.00001176,-0.00000682,-0.00000242,0.00000071
 ,0.00000436,0.00000280,-0.00000122,-0.00000029,-0.00000077,0.00000536,
 -0.00000521,-0.00000080,0.00067778,-0.00030769,-0.00014100,-0.00005403
 ,0.00010239,-0.00063873,-0.00017418,-0.00019560,-0.00007928,-0.0000915
 7,-0.00009603,-0.00003528,-0.00019578,-0.00020854,-0.00007842,0.000012
 41,0.00000473,-0.00000444,-0.00000072,0.00000182,-0.00000149,0.0000027
 2,-0.00000457,0.00000049,-0.00000225,0.00000589,0.00000482,-0.00001215
 ,-0.00006396,-0.00001074,0.00000543,0.00000036,-0.00000992,-0.00002018
 ,0.00004103,-0.00004373,0.00000429,0.00000272,0.00000541,-0.00002154,-
 0.00000148,0.00002164,0.00000151,-0.00000664,-0.00000091,-0.00003041,-
 0.00000868,-0.00000261,0.00000312,-0.00000268,0.00001262,-0.00001372,0
 .00001391,0.00000043,-0.00002411,0.00004396,0.00003976,0.00000550,-0.0
 0000410,-0.00000155,-0.00002198,0.00000120,-0.00002002,0.00000457,-0.0
 0000425,0.00000295,0.30178899,0.05769401,-0.02207369,0.00109343,-0.006
 75868,-0.00743395,0.00154130,0.00901371,-0.01122125,0.00202644,-0.0009
 0943,-0.00091800,-0.00290819,0.00548619,-0.00005713,-0.00331100,-0.002
 20611,-0.00301262,-0.00082691,0.00291228,-0.00273905,0.00122049,0.0051
 8235,-0.00591597,-0.00325705,0.00329133,-0.00802163,-0.00100318,-0.001
 86758,0.00095400,0.00687533,-0.00015098,0.00010005,0.00012070,0.001708
 70,0.00115389,0.00511294,0.00013569,-0.00000118,0.00001219,-0.00045546
 ,0.00125225,-0.00405931,-0.00063241,0.00024476,-0.00006343,-0.00001267
 ,0.00003413,0.00001339,0.00018762,-0.00115324,0.00005022,0.00036810,-0
 .00011638,0.00003230,0.00014158,0.00056438,-0.00001163,-0.00001990,-0.
 00000610,0.00001528,-0.01448180,0.01157133,-0.01622608,-0.00488114,-0.
 00604408,-0.00733672,0.00003573,-0.00042990,0.00025918,0.02106323,-0.1
 0051722,0.03653932,0.00671738,0.00871521,-0.00754843,-0.00074898,0.000
 11657,-0.00001649,-0.00106100,-0.00107614,-0.00092781,0.00005490,0.000
 01238,0.00020618,0.02199123,-0.01323694,0.01381487,0.00563057,0.000455
 61,0.00031644,0.00547479,0.01050113,-0.02324659,-0.03006005,-0.0535373
 5,0.00627778,0.00091862,0.00168224,-0.00362457,-0.00043936,0.00083285,
 -0.00142347,-0.00001669,-0.00016692,0.00005690,-0.00045803,0.00003326,
 -0.00002393,-0.00027630,0.00046393,-0.00150857,0.00016938,-0.00040871,
 -0.00001094,0.03674568,-0.09949266,-0.06018144,-0.00574799,0.00716942,
 0.00684612,-0.00673446,0.01150115,-0.00538807,-0.00692963,-0.01118721,
 0.01867212,0.00131873,0.00138905,0.00136093,-0.00002113,-0.00004704,-0
 .00025874,0.01533100,0.01668565,0.01513947,-0.00048508,0.00025155,-0.0
 0030928,-0.00011387,-0.00038727,0.00008281,-0.00045301,0.00021552,0.00
 004638,0.00086907,0.00051454,0.00009885,0.00021689,-0.00020698,0.00002
 072,0.00290030,0.00338679,-0.00005863,-0.00139492,0.00044151,0.0001798
 0,0.03690689,-0.03146999,0.01403700,0.00178766,-0.00013285,-0.00345214
 ,0.00001533,0.00004555,-0.00026281,-0.00004248,0.00002374,0.00002560,0
 .00000965,0.00000620,0.00002024,-0.00000479,0.00000964,0.00000355,0.00
 000491,0.00000107,-0.00000861,-0.00000012,0.00000291,-0.00001038,-0.00
 008779,-0.00009870,0.00114623,-0.00028195,0.00029276,0.00008267,-0.000
 13886,0.00013793,0.00005357,-0.00027128,0.00031963,0.00007217,0.000018
 96,0.00001526,-0.00001464,-0.00000032,-0.00000552,0.00000097,0.0000071
 0,0.00000302,0.00000666,-0.00001210,0.00001044,0.00000018,-0.00039771,
 -0.00313498,-0.00008837,-0.00002852,-0.00008361,0.00069360,0.00020253,
 0.00022393,0.00012066,0.00011971,0.00010749,0.00003787,0.00021623,0.00
 021593,0.00008846,0.00004479,-0.00000227,0.00000277,-0.00000211,0.0000
 0862,-0.00001671,-0.00000548,0.00001305,-0.00000014,0.00000130,0.00000
 478,0.00001370,-0.00002356,0.00017346,-0.00000147,-0.00001252,-0.00000
 262,0.00002086,0.00007912,-0.00014153,0.00014112,-0.00001252,-0.000002
 25,-0.00001397,0.00007019,0.00000187,-0.00006937,-0.00001699,0.0000094
 7,0.00000309,0.00011507,0.00003094,0.00000482,-0.00001046,0.00000042,-
 0.00002315,0.00003164,-0.00005359,-0.00000085,0.00008616,-0.00014339,-
 0.00013492,-0.00002110,0.00000190,-0.00000389,0.00006739,-0.00000446,0
 .00006891,-0.00001332,0.00000574,0.00000467,-0.15664307,0.30277548,-0.
 00414355,0.00017196,-0.06553971,0.00121768,0.00133839,-0.00027117,-0.0
 0166456,0.00149914,0.00065451,0.00014230,0.00015837,0.00049363,-0.0039
 2522,0.00462715,0.00471160,-0.00371455,0.00437236,0.00303081,0.0003247
 1,0.00052680,-0.00264487,0.00182359,-0.00223704,-0.00091516,0.00163412
 ,-0.00091131,0.01261534,0.00059139,-0.00059590,-0.00315967,-0.00004743
 ,0.00009861,0.00001825,-0.00050722,-0.00048784,-0.00104710,-0.00013671
 ,0.00014150,0.00003089,-0.00030973,0.00010518,0.00134617,-0.00001471,-
 0.00005216,0.00012899,-0.00003005,-0.00002220,-0.00002392,0.00004992,-
 0.00006952,-0.00088212,0.00001262,-0.00001088,0.00002516,-0.00012224,-
 0.00009167,0.00000003,-0.00001950,-0.00001082,0.00002158,0.00940132,-0
 .00347275,-0.05816525,0.00101976,0.00123757,0.00121399,0.00002717,0.00
 009592,-0.00003737,-0.01847995,0.04438831,-0.25799486,-0.00127072,-0.0
 0158657,0.00111841,0.00020822,-0.00003200,0.00035675,0.00065517,0.0007
 7873,0.00044981,-0.00004413,0.00003430,-0.00002395,-0.04527418,0.05086
 518,0.01915895,0.00072397,-0.00048340,0.00116949,-0.00110377,-0.001353
 72,0.00298175,0.00498421,0.00628017,-0.00147505,-0.00010218,-0.0008275
 9,0.00104265,0.00058483,-0.00056353,-0.00109539,0.00012508,-0.00018737
 ,-0.00019025,-0.00005080,-0.00002809,0.00014842,0.00086041,0.00022018,
 0.00168865,-0.00000336,0.00005444,-0.00002826,0.07124605,-0.05442577,-
 0.26621540,0.01272459,-0.01268659,-0.01569317,0.00281960,0.00352547,-0
 .03788791,0.00107938,0.00194527,-0.00322213,-0.00018873,-0.00057399,-0
 .00118867,0.00000437,-0.00001406,0.00006634,-0.00246776,-0.00329210,-0
 .00216185,0.00010464,-0.00001963,0.00007237,-0.00058680,0.00003607,0.0
 0028763,-0.00054856,-0.00041652,0.00009333,0.00007721,0.00011905,-0.00
 076588,0.00002344,-0.00002143,-0.00009021,0.00025850,0.00017306,-0.000
 70090,0.00002461,-0.00010413,0.00044327,0.04034516,-0.04800726,0.03552
 012,0.00218511,-0.00244087,0.00281310,-0.00001295,0.00007689,0.0002286
 2,-0.00000232,0.00002828,-0.00000769,-0.00001185,-0.00002087,-0.000019
 16,0.00000254,-0.00000087,-0.00000135,-0.00000866,-0.00000020,0.000009
 84,0.00000171,0.00000009,0.00000267,0.00012206,-0.00002250,-0.00039797
 ,0.00008758,-0.00007989,0.00001890,0.00004854,-0.00004893,-0.00002369,
 0.00007375,-0.00011050,0.00000706,-0.00001437,-0.00002280,0.00001928,0
 .00000168,0.00000122,-0.00000132,-0.00000960,0.00000102,-0.00000968,0.
 00000356,-0.00000004,0.00000007,-0.00000071,-0.00046686,0.00001141,-0.
 00000063,0.00000571,-0.00005569,-0.00001555,-0.00002506,-0.00001503,-0
 .00001367,-0.00000845,-0.00000415,-0.00002113,-0.00001902,-0.00001310,
 -0.00001634,0.00000564,-0.00000157,0.00000233,-0.00000108,0.00000091,-
 0.00000228,-0.00000737,0.,0.00000044,-0.00000069,0.00000029,0.00000471
 ,-0.00000205,0.00009287,0.00000016,0.00000052,-0.00000120,-0.00000418,
 -0.00000321,-0.00000459,-0.00000010,0.00000220,-0.00000321,-0.00000468
 ,-0.00000617,0.00000134,-0.00000368,-0.00000537,0.00000217,-0.00000054
 ,0.00000105,0.00000101,0.00000061,-0.00000079,0.00000132,-0.00000117,0
 .00000082,0.00000117,0.00000327,0.00000162,-0.00000474,0.00000390,0.00
 000495,0.00000221,0.00000267,0.00000804,0.00000119,0.00000066,-0.00000
 248,-0.00000222,-0.07073850,0.01295066,0.62988226\\0.00000937,0.000000
 86,0.00000006,0.00000331,0.00000221,-0.00000874,0.00000337,-0.00000228
 ,0.00000875,0.00000046,0.00000482,-0.00000770,0.00000046,-0.00000484,0
 .00000769,-0.00000303,-0.00000401,-0.00000226,-0.00002093,-0.00000172,
 0.00000645,-0.00000336,0.00000401,0.00000231,-0.00002102,0.00000105,-0
 .00000651,0.00000198,0.00000151,0.00000058,-0.00000172,0.00000300,-0.0
 0000305,0.00000201,-0.00000144,-0.00000049,-0.00000175,-0.00000298,0.0
 0000307,0.00000063,0.00000807,-0.00000039,-0.00000061,-0.00000270,0.00
 000620,0.00000071,-0.00000017,0.00001012,-0.00000048,0.00000268,-0.000
 00603,0.00000081,0.00000008,-0.00001023,0.00000070,0.00000191,0.000002
 24,-0.00000111,-0.00000050,0.00000227,-0.00000039,0.,0.00001233,-0.000
 00169,-0.00000249,0.00000689,0.00000251,-0.00000343,-0.00000856,0.0000
 0094,0.00001043,-0.00000530,-0.00000028,0.00000012,-0.00001242,0.00000
 659,-0.00001728,0.00000081,0.00000126,-0.00001049,-0.00000174,0.000000
 83,-0.00001146,-0.00000280,-0.00000166,0.00000245,-0.00000696,0.000002
 54,0.00000342,0.00000858,0.00000108,-0.00001024,0.00000508,0.00000374,
 -0.00000341,-0.00000248,0.00000064,-0.00000804,0.00000034,0.00000129,0
 .00001042,0.00000173,0.00000083,0.00001146,0.00000279,-0.00000154,0.00
 000116,-0.00000276,-0.00000251,-0.00000459,-0.00000173,-0.00000149,-0.
 00000127,0.00000264,0.00000131,-0.00000566,0.00001973,-0.00000105,-0.0
 0000210,0.00000017,-0.00000256,0.00000460,0.00000171,-0.00000085,0.000
 00272,-0.00000474,0.00000183,-0.00000592,-0.00000376,-0.00000153,-0.00
 000627,-0.00000473,0.00000161,0.00000585,-0.00001953,-0.00000105,0.000
 00214,-0.00000020,0.00000583,0.00001262,0.00000437,0.00000126,-0.00000
 095,0.00000578,0.00000070,-0.00000187,-0.00000209,-0.00000109,0.000000
 48,-0.00000195,0.00000596,-0.00001254,-0.00000436,0.00000119,0.0000009
 7,-0.00000596,-0.00000075,-0.00000289,0.00000493,0.00000182,0.00000594
 ,0.00000386,-0.00000150,0.00000625,0.00000470,-0.00000026,0.00000180,0
 .00000477,-0.00000042,0.00000255,0.00000673,0.00000143,0.00000393,0.00
 000302,-0.00000015,0.00000226,0.00000755,0.00000011,0.00000395,0.00000
 661,0.00000110,0.00001172,-0.00000101,-0.00000081,0.00000935,-0.000001
 14,0.00000099,0.00001020,-0.00000314,-0.00000224,0.00001083,-0.0000018
 8,-0.00000003,-0.00000319,0.00000797,0.00000011,-0.00000408,0.00000665
 ,-0.00000015,-0.00000216,0.00000728,-0.00000061,-0.00000306,0.00000389
 ,0.00000653,0.00001730,-0.00000075,0.00000112,-0.00001172,0.00000099,-
 0.00000082,-0.00000932,0.00000113,0.00000100,-0.00001020,0.00000313,-0
 .00000226,-0.00001083,0.00000189,-0.00000072,-0.00000046,0.00000999,-0
 .00000035,0.00000138,0.00001019,-0.00000007,-0.00000046,0.00001088,0.0
 0000006,-0.00000151,0.00001031,-0.00000024,-0.00000174,-0.00000502,-0.
 00000025,0.00000167,-0.00001027,0.00000015,0.00000315,-0.00000793,0.00
 000010,0.00000411,-0.00000665,-0.00000014,0.00000215,-0.00000731,-0.00
 000041,0.00000282,-0.00000404,-0.00000078,0.00000056,-0.00000993,-0.00
 000019,-0.00000148,-0.00001016,-0.00000006,0.00000048,-0.00001089,-0.0
 0000054,-0.00000255,-0.00000661,0.00000120,-0.00000373,-0.00000312,-0.
 00000015,-0.00000225,-0.00000756,0.00000011,-0.00000396,-0.00000659,0.
 00000405,0.00000278,0.00000232\\\@
 The archive entry for this job was punched.


 "A LITTLE BIT GOES A LONG WAY"
 R.S. MULLIKEN AS QUOTED BY K. RUEDENBERG
 Job cpu time:       6 days  3 hours 41 minutes 36.0 seconds.
 Elapsed time:       0 days  7 hours 27 minutes 29.0 seconds.
 File lengths (MBytes):  RWF=  14658 Int=      0 D2E=      0 Chk=    115 Scr=      1
 Normal termination of Gaussian 16 at Wed Aug 27 01:18:32 2025.
